 Entering Gaussian System, Link 0=g16
 Input=06_ts5_3P_2-030.gjf
 Output=06_ts5_3P_2-030.log
 Initial command:
 /share/home/dongh_N/wxy/software/g16/l1.exe "/share/home/dongh_N/wxy/ayala_yyq/Gau-28064.inp" -scrdir="/share/home/dongh_N/wxy/ayala_yyq/"
 Entering Link 1 = /share/home/dongh_N/wxy/software/g16/l1.exe PID=     28065.
  
 Copyright (c) 1988,1990,1992,1993,1995,1998,2003,2009,2016,
            Gaussian, Inc.  All Rights Reserved.
  
 This is part of the Gaussian(R) 16 program.  It is based on
 the Gaussian(R) 09 system (copyright 2009, Gaussian, Inc.),
 the Gaussian(R) 03 system (copyright 2003, Gaussian, Inc.),
 the Gaussian(R) 98 system (copyright 1998, Gaussian, Inc.),
 the Gaussian(R) 94 system (copyright 1995, Gaussian, Inc.),
 the Gaussian 92(TM) system (copyright 1992, Gaussian, Inc.),
 the Gaussian 90(TM) system (copyright 1990, Gaussian, Inc.),
 the Gaussian 88(TM) system (copyright 1988, Gaussian, Inc.),
 the Gaussian 86(TM) system (copyright 1986, Carnegie Mellon
 University), and the Gaussian 82(TM) system (copyright 1983,
 Carnegie Mellon University). Gaussian is a federally registered
 trademark of Gaussian, Inc.
  
 This software contains proprietary and confidential information,
 including trade secrets, belonging to Gaussian, Inc.
  
 This software is provided under written license and may be
 used, copied, transmitted, or stored only in accord with that
 written license.
  
 The following legend is applicable only to US Government
 contracts under FAR:
  
                    RESTRICTED RIGHTS LEGEND
  
 Use, reproduction and disclosure by the US Government is
 subject to restrictions as set forth in subparagraphs (a)
 and (c) of the Commercial Computer Software - Restricted
 Rights clause in FAR 52.227-19.
  
 Gaussian, Inc.
 340 Quinnipiac St., Bldg. 40, Wallingford CT 06492
  
  
 ---------------------------------------------------------------
 Warning -- This program may not be used in any manner that
 competes with the business of Gaussian, Inc. or will provide
 assistance to any competitor of Gaussian, Inc.  The licensee
 of this program is prohibited from giving any competitor of
 Gaussian, Inc. access to this program.  By using this program,
 the user acknowledges that Gaussian, Inc. is engaged in the
 business of creating and licensing software in the field of
 computational chemistry and represents and warrants to the
 licensee that it is not a competitor of Gaussian, Inc. and that
 it will not use this program in any manner prohibited above.
 ---------------------------------------------------------------
  

 Cite this work as:
 Gaussian 16, Revision A.03,
 M. J. Frisch, G. W. Trucks, H. B. Schlegel, G. E. Scuseria, 
 M. A. Robb, J. R. Cheeseman, G. Scalmani, V. Barone, 
 G. A. Petersson, H. Nakatsuji, X. Li, M. Caricato, A. V. Marenich, 
 J. Bloino, B. G. Janesko, R. Gomperts, B. Mennucci, H. P. Hratchian, 
 J. V. Ortiz, A. F. Izmaylov, J. L. Sonnenberg, D. Williams-Young, 
 F. Ding, F. Lipparini, F. Egidi, J. Goings, B. Peng, A. Petrone, 
 T. Henderson, D. Ranasinghe, V. G. Zakrzewski, J. Gao, N. Rega, 
 G. Zheng, W. Liang, M. Hada, M. Ehara, K. Toyota, R. Fukuda, 
 J. Hasegawa, M. Ishida, T. Nakajima, Y. Honda, O. Kitao, H. Nakai, 
 T. Vreven, K. Throssell, J. A. Montgomery, Jr., J. E. Peralta, 
 F. Ogliaro, M. J. Bearpark, J. J. Heyd, E. N. Brothers, K. N. Kudin, 
 V. N. Staroverov, T. A. Keith, R. Kobayashi, J. Normand, 
 K. Raghavachari, A. P. Rendell, J. C. Burant, S. S. Iyengar, 
 J. Tomasi, M. Cossi, J. M. Millam, M. Klene, C. Adamo, R. Cammi, 
 J. W. Ochterski, R. L. Martin, K. Morokuma, O. Farkas, 
 J. B. Foresman, and D. J. Fox, Gaussian, Inc., Wallingford CT, 2016.
 
 ******************************************
 Gaussian 16:  ES64L-G16RevA.03 25-Dec-2016
                15-Sep-2024 
 ******************************************
 %mem=64GB
 %nprocshared=24
 Will use up to   24 processors via shared memory.
 -----------------------------------------------------
 # opt=(modredundant,maxstep=7) freq genecp scrf m062x
 -----------------------------------------------------
 1/8=7,18=120,19=15,26=3,38=1/1,3;
 2/9=110,12=2,17=6,18=5,40=1/2;
 3/5=7,11=2,16=1,17=8,25=1,30=1,70=2201,71=1,74=-55/1,2,3;
 4//1;
 5/5=2,38=5/2;
 6/7=2,8=2,9=2,10=2,28=1/1;
 7//1,2,3,16;
 1/8=7,18=20,19=15,26=3/3(2);
 2/9=110/2;
 99//99;
 2/9=110/2;
 3/5=7,6=1,11=2,16=1,17=8,25=1,30=1,70=2205,71=1,74=-55,82=7/1,2,3;
 4/5=5,16=3,69=1/1;
 5/5=2,38=5/2;
 7//1,2,3,16;
 1/8=7,18=20,19=15,26=3/3(-5);
 2/9=110/2;
 6/7=2,8=2,9=2,10=2,19=2,28=1/1;
 99/9=1/99;
 -------------------
 Title Card Required
 -------------------
 Symbolic Z-matrix:
 Charge =  1 Multiplicity = 1
 C                     2.58683   1.50011   3.86131 
 H                     2.02025   1.7644    4.75019 
 C                     1.64674   1.27125   2.67587 
 H                     1.06042   2.17459   2.48425 
 H                     0.92098   0.49081   2.91936 
 N                     1.72661   0.44451   0.28583 
 C                     2.37289   0.8891    1.42488 
 C                     2.66234   0.21581  -0.62217 
 H                     2.48962  -0.14468  -1.62233 
 N                     3.8763    0.48904  -0.12899 
 H                     4.76655   0.39142  -0.63707 
 C                     3.71439   0.91366   1.1654 
 H                     4.55107   1.19313   1.78074 
 C                    -0.01455   4.93329  -1.32694 
 H                     0.06964   5.57938  -0.44858 
 C                     0.0073    3.45514  -0.92724 
 H                     0.95554   3.2119   -0.43208 
 H                    -0.03905   2.82661  -1.82615 
 N                    -1.36688   1.75899   0.36701 
 C                    -1.12322   3.06824  -0.02053 
 C                    -2.43671   1.77528   1.14059 
 H                    -2.90275   0.91148   1.58361 
 N                    -2.88602   3.02626   1.28281 
 H                    -3.69838   3.30089   1.81567 
 C                    -2.07532   3.86453   0.54999 
 H                    -2.23926   4.92368   0.50496 
 C                    -3.28177  -3.3992   -0.68538 
 H                    -3.42788  -4.39224  -0.26253 
 C                    -1.82399  -3.21916  -1.16135 
 H                    -1.71954  -2.29517  -1.72613 
 H                    -1.58665  -4.03723  -1.84144 
 N                    -0.25103  -2.0358    0.44089 
 C                    -0.82949  -3.20062  -0.04357 
 C                     0.56856  -2.39628   1.41394 
 H                     1.19564  -1.73664   1.98667 
 N                     0.53692  -3.72282   1.58324 
 H                     1.0776   -4.23915   2.26133 
 C                    -0.33865  -4.25378   0.67274 
 H                    -0.52961  -5.3104    0.60395 
 C                    -3.61333  -2.39201   0.39567 
 O                    -3.87337  -2.70618   1.53423 
 O                    -3.56905  -1.10645   0.05839 
 Zn                   -0.3062    0.01599  -0.18006 
 O                    -3.82117   2.38352  -1.9361 
 H                    -3.05857   2.84414  -1.56933 
 H                    -3.53055   1.46306  -2.07364 
 O                    -0.55294  -0.16483  -2.14934 
 H                    -0.11532   0.473    -2.71874 
 H                    -1.93853  -0.21416  -2.36532 
 O                    -3.00337  -0.27514  -2.32854 
 H                    -3.38326  -0.91558  -0.91397 
 H                    -3.32428  -0.69628  -3.13166 
 H                     3.1638    0.60068   4.07779 
 H                     3.28563   2.31129   3.65503 
 H                     0.82099   5.15402  -1.99147 
 H                    -0.9418    5.18294  -1.84669 
 H                    -3.95523  -3.26749  -1.53013 
 O                     6.3126    0.24627  -1.45431 
 H                     6.70542  -0.62546  -1.66345 
 H                     6.53124   0.82836  -2.18757 
 O                     7.36615  -2.25107  -1.92983 
 H                     8.31422  -2.38811  -1.83776 
 H                     7.10671  -2.74328  -2.7158 
 
 Add virtual bond connecting atoms H49        and O47        Dist= 2.65D+00.
 Add virtual bond connecting atoms O58        and H11        Dist= 3.32D+00.
 Add virtual bond connecting atoms O61        and H59        Dist= 3.35D+00.
 Add virtual bond connecting atoms O50        and H46        Dist= 3.47D+00.
 The following ModRedundant input section has been read:
 X      27 F                                                                   
 X       1 F                                                                   
 X      14 F                                                                   
 

 GradGradGradGradGradGradGradGradGradGradGradGradGradGradGradGradGradGrad
 Berny optimization.
 Initialization pass.
                           ----------------------------
                           !    Initial Parameters    !
                           ! (Angstroms and Degrees)  !
 --------------------------                            --------------------------
 ! Name  Definition              Value          Derivative Info.                !
 --------------------------------------------------------------------------------
 ! X1    R(1,-1)                 2.5868         Frozen                          !
 ! Y1    R(1,-2)                 1.5001         Frozen                          !
 ! Z1    R(1,-3)                 3.8613         Frozen                          !
 ! X14   R(14,-1)               -0.0145         Frozen                          !
 ! Y14   R(14,-2)                4.9333         Frozen                          !
 ! Z14   R(14,-3)               -1.3269         Frozen                          !
 ! X27   R(27,-1)               -3.2818         Frozen                          !
 ! Y27   R(27,-2)               -3.3992         Frozen                          !
 ! Z27   R(27,-3)               -0.6854         Frozen                          !
 ! R1    R(1,2)                  1.0867         estimate D2E/DX2                !
 ! R2    R(1,3)                  1.5302         estimate D2E/DX2                !
 ! R3    R(1,53)                 1.0903         estimate D2E/DX2                !
 ! R4    R(1,54)                 1.0904         estimate D2E/DX2                !
 ! R5    R(3,4)                  1.0939         estimate D2E/DX2                !
 ! R6    R(3,5)                  1.0932         estimate D2E/DX2                !
 ! R7    R(3,7)                  1.4961         estimate D2E/DX2                !
 ! R8    R(6,7)                  1.383          estimate D2E/DX2                !
 ! R9    R(6,8)                  1.3238         estimate D2E/DX2                !
 ! R10   R(6,43)                 2.1291         estimate D2E/DX2                !
 ! R11   R(7,12)                 1.3666         estimate D2E/DX2                !
 ! R12   R(8,9)                  1.0771         estimate D2E/DX2                !
 ! R13   R(8,10)                 1.3385         estimate D2E/DX2                !
 ! R14   R(10,11)                1.0297         estimate D2E/DX2                !
 ! R15   R(10,12)                1.3719         estimate D2E/DX2                !
 ! R16   R(11,58)                1.7548         estimate D2E/DX2                !
 ! R17   R(12,13)                1.0755         estimate D2E/DX2                !
 ! R18   R(14,15)                1.0936         estimate D2E/DX2                !
 ! R19   R(14,16)                1.5314         estimate D2E/DX2                !
 ! R20   R(14,55)                1.0902         estimate D2E/DX2                !
 ! R21   R(14,56)                1.0919         estimate D2E/DX2                !
 ! R22   R(16,17)                1.097          estimate D2E/DX2                !
 ! R23   R(16,18)                1.0978         estimate D2E/DX2                !
 ! R24   R(16,20)                1.5            estimate D2E/DX2                !
 ! R25   R(19,20)                1.387          estimate D2E/DX2                !
 ! R26   R(19,21)                1.3203         estimate D2E/DX2                !
 ! R27   R(19,43)                2.1124         estimate D2E/DX2                !
 ! R28   R(20,25)                1.366          estimate D2E/DX2                !
 ! R29   R(21,22)                1.0768         estimate D2E/DX2                !
 ! R30   R(21,23)                1.3368         estimate D2E/DX2                !
 ! R31   R(23,24)                1.0096         estimate D2E/DX2                !
 ! R32   R(23,25)                1.3773         estimate D2E/DX2                !
 ! R33   R(25,26)                1.0727         estimate D2E/DX2                !
 ! R34   R(27,28)                1.0892         estimate D2E/DX2                !
 ! R35   R(27,29)                1.544          estimate D2E/DX2                !
 ! R36   R(27,40)                1.5143         estimate D2E/DX2                !
 ! R37   R(27,57)                1.0884         estimate D2E/DX2                !
 ! R38   R(29,30)                1.088          estimate D2E/DX2                !
 ! R39   R(29,31)                1.09           estimate D2E/DX2                !
 ! R40   R(29,33)                1.4963         estimate D2E/DX2                !
 ! R41   R(32,33)                1.3878         estimate D2E/DX2                !
 ! R42   R(32,34)                1.3223         estimate D2E/DX2                !
 ! R43   R(32,43)                2.1444         estimate D2E/DX2                !
 ! R44   R(33,38)                1.365          estimate D2E/DX2                !
 ! R45   R(34,35)                1.0753         estimate D2E/DX2                !
 ! R46   R(34,36)                1.3377         estimate D2E/DX2                !
 ! R47   R(36,37)                1.0093         estimate D2E/DX2                !
 ! R48   R(36,38)                1.3702         estimate D2E/DX2                !
 ! R49   R(38,39)                1.0759         estimate D2E/DX2                !
 ! R50   R(40,41)                1.2094         estimate D2E/DX2                !
 ! R51   R(40,42)                1.3298         estimate D2E/DX2                !
 ! R52   R(42,51)                1.0082         estimate D2E/DX2                !
 ! R53   R(43,47)                1.9929         estimate D2E/DX2                !
 ! R54   R(44,45)                0.9635         estimate D2E/DX2                !
 ! R55   R(44,46)                0.975          estimate D2E/DX2                !
 ! R56   R(46,50)                1.8342         estimate D2E/DX2                !
 ! R57   R(47,48)                0.9605         estimate D2E/DX2                !
 ! R58   R(47,49)                1.4032         estimate D2E/DX2                !
 ! R59   R(49,50)                1.0672         estimate D2E/DX2                !
 ! R60   R(50,52)                0.962          estimate D2E/DX2                !
 ! R61   R(58,59)                0.9788         estimate D2E/DX2                !
 ! R62   R(58,60)                0.9614         estimate D2E/DX2                !
 ! R63   R(59,61)                1.7749         estimate D2E/DX2                !
 ! R64   R(61,62)                0.9623         estimate D2E/DX2                !
 ! R65   R(61,63)                0.963          estimate D2E/DX2                !
 ! A1    A(2,1,3)              110.4711         estimate D2E/DX2                !
 ! A2    A(2,1,53)             108.3073         estimate D2E/DX2                !
 ! A3    A(2,1,54)             107.9354         estimate D2E/DX2                !
 ! A4    A(3,1,53)             110.828          estimate D2E/DX2                !
 ! A5    A(3,1,54)             111.005          estimate D2E/DX2                !
 ! A6    A(53,1,54)            108.1883         estimate D2E/DX2                !
 ! A7    A(1,3,4)              109.9693         estimate D2E/DX2                !
 ! A8    A(1,3,5)              110.0043         estimate D2E/DX2                !
 ! A9    A(1,3,7)              112.8176         estimate D2E/DX2                !
 ! A10   A(4,3,5)              105.8266         estimate D2E/DX2                !
 ! A11   A(4,3,7)              108.9431         estimate D2E/DX2                !
 ! A12   A(5,3,7)              109.0326         estimate D2E/DX2                !
 ! A13   A(7,6,8)              106.8665         estimate D2E/DX2                !
 ! A14   A(7,6,43)             133.7154         estimate D2E/DX2                !
 ! A15   A(8,6,43)             119.3435         estimate D2E/DX2                !
 ! A16   A(3,7,6)              122.9543         estimate D2E/DX2                !
 ! A17   A(3,7,12)             129.0964         estimate D2E/DX2                !
 ! A18   A(6,7,12)             107.9455         estimate D2E/DX2                !
 ! A19   A(6,8,9)              125.5491         estimate D2E/DX2                !
 ! A20   A(6,8,10)             110.6773         estimate D2E/DX2                !
 ! A21   A(9,8,10)             123.773          estimate D2E/DX2                !
 ! A22   A(8,10,11)            125.6611         estimate D2E/DX2                !
 ! A23   A(8,10,12)            107.6858         estimate D2E/DX2                !
 ! A24   A(11,10,12)           126.6528         estimate D2E/DX2                !
 ! A25   A(7,12,10)            106.8245         estimate D2E/DX2                !
 ! A26   A(7,12,13)            131.2759         estimate D2E/DX2                !
 ! A27   A(10,12,13)           121.8996         estimate D2E/DX2                !
 ! A28   A(15,14,16)           111.07           estimate D2E/DX2                !
 ! A29   A(15,14,55)           108.1171         estimate D2E/DX2                !
 ! A30   A(15,14,56)           108.2165         estimate D2E/DX2                !
 ! A31   A(16,14,55)           110.0966         estimate D2E/DX2                !
 ! A32   A(16,14,56)           110.9186         estimate D2E/DX2                !
 ! A33   A(55,14,56)           108.3251         estimate D2E/DX2                !
 ! A34   A(14,16,17)           110.1304         estimate D2E/DX2                !
 ! A35   A(14,16,18)           109.7734         estimate D2E/DX2                !
 ! A36   A(14,16,20)           113.3282         estimate D2E/DX2                !
 ! A37   A(17,16,18)           106.2079         estimate D2E/DX2                !
 ! A38   A(17,16,20)           108.7496         estimate D2E/DX2                !
 ! A39   A(18,16,20)           108.3882         estimate D2E/DX2                !
 ! A40   A(20,19,21)           107.1227         estimate D2E/DX2                !
 ! A41   A(20,19,43)           128.1926         estimate D2E/DX2                !
 ! A42   A(21,19,43)           124.664          estimate D2E/DX2                !
 ! A43   A(16,20,19)           123.0111         estimate D2E/DX2                !
 ! A44   A(16,20,25)           128.8594         estimate D2E/DX2                !
 ! A45   A(19,20,25)           108.1263         estimate D2E/DX2                !
 ! A46   A(19,21,22)           125.5789         estimate D2E/DX2                !
 ! A47   A(19,21,23)           110.256          estimate D2E/DX2                !
 ! A48   A(22,21,23)           124.1545         estimate D2E/DX2                !
 ! A49   A(21,23,24)           125.531          estimate D2E/DX2                !
 ! A50   A(21,23,25)           108.3676         estimate D2E/DX2                !
 ! A51   A(24,23,25)           126.0783         estimate D2E/DX2                !
 ! A52   A(20,25,23)           106.1221         estimate D2E/DX2                !
 ! A53   A(20,25,26)           131.6468         estimate D2E/DX2                !
 ! A54   A(23,25,26)           122.2299         estimate D2E/DX2                !
 ! A55   A(28,27,29)           110.649          estimate D2E/DX2                !
 ! A56   A(28,27,40)           107.4512         estimate D2E/DX2                !
 ! A57   A(28,27,57)           109.1872         estimate D2E/DX2                !
 ! A58   A(29,27,40)           110.4409         estimate D2E/DX2                !
 ! A59   A(29,27,57)           109.3202         estimate D2E/DX2                !
 ! A60   A(40,27,57)           109.7635         estimate D2E/DX2                !
 ! A61   A(27,29,30)           110.4689         estimate D2E/DX2                !
 ! A62   A(27,29,31)           108.0839         estimate D2E/DX2                !
 ! A63   A(27,29,33)           113.4956         estimate D2E/DX2                !
 ! A64   A(30,29,31)           107.0144         estimate D2E/DX2                !
 ! A65   A(30,29,33)           108.2684         estimate D2E/DX2                !
 ! A66   A(31,29,33)           109.3101         estimate D2E/DX2                !
 ! A67   A(33,32,34)           106.6431         estimate D2E/DX2                !
 ! A68   A(33,32,43)           133.7291         estimate D2E/DX2                !
 ! A69   A(34,32,43)           119.332          estimate D2E/DX2                !
 ! A70   A(29,33,32)           123.244          estimate D2E/DX2                !
 ! A71   A(29,33,38)           128.4241         estimate D2E/DX2                !
 ! A72   A(32,33,38)           108.3308         estimate D2E/DX2                !
 ! A73   A(32,34,35)           125.8834         estimate D2E/DX2                !
 ! A74   A(32,34,36)           110.4146         estimate D2E/DX2                !
 ! A75   A(35,34,36)           123.6906         estimate D2E/DX2                !
 ! A76   A(34,36,37)           125.4264         estimate D2E/DX2                !
 ! A77   A(34,36,38)           108.3788         estimate D2E/DX2                !
 ! A78   A(37,36,38)           126.191          estimate D2E/DX2                !
 ! A79   A(33,38,36)           106.2306         estimate D2E/DX2                !
 ! A80   A(33,38,39)           131.325          estimate D2E/DX2                !
 ! A81   A(36,38,39)           122.4414         estimate D2E/DX2                !
 ! A82   A(27,40,41)           123.1193         estimate D2E/DX2                !
 ! A83   A(27,40,42)           117.0415         estimate D2E/DX2                !
 ! A84   A(41,40,42)           119.8064         estimate D2E/DX2                !
 ! A85   A(40,42,51)           115.7076         estimate D2E/DX2                !
 ! A86   A(6,43,19)            104.8724         estimate D2E/DX2                !
 ! A87   A(6,43,32)             96.0073         estimate D2E/DX2                !
 ! A88   A(6,43,47)            110.6522         estimate D2E/DX2                !
 ! A89   A(19,43,32)           136.6695         estimate D2E/DX2                !
 ! A90   A(19,43,47)           105.5811         estimate D2E/DX2                !
 ! A91   A(32,43,47)           101.6837         estimate D2E/DX2                !
 ! A92   A(45,44,46)           105.6112         estimate D2E/DX2                !
 ! A93   A(43,47,48)           117.9781         estimate D2E/DX2                !
 ! A94   A(43,47,49)           106.1136         estimate D2E/DX2                !
 ! A95   A(48,47,49)           112.4574         estimate D2E/DX2                !
 ! A96   A(46,50,49)           103.7349         estimate D2E/DX2                !
 ! A97   A(46,50,52)           115.7872         estimate D2E/DX2                !
 ! A98   A(49,50,52)           109.2143         estimate D2E/DX2                !
 ! A99   A(11,58,59)           121.789          estimate D2E/DX2                !
 ! A100  A(11,58,60)           120.3642         estimate D2E/DX2                !
 ! A101  A(59,58,60)           106.5589         estimate D2E/DX2                !
 ! A102  A(59,61,62)           118.8703         estimate D2E/DX2                !
 ! A103  A(59,61,63)           119.3641         estimate D2E/DX2                !
 ! A104  A(62,61,63)           105.7066         estimate D2E/DX2                !
 ! A105  L(10,11,58,55,-1)     180.4716         estimate D2E/DX2                !
 ! A106  L(44,46,50,1,-1)      180.3576         estimate D2E/DX2                !
 ! A107  L(47,49,50,19,-1)     171.9547         estimate D2E/DX2                !
 ! A108  L(58,59,61,27,-1)     177.6483         estimate D2E/DX2                !
 ! A109  L(10,11,58,55,-2)     177.776          estimate D2E/DX2                !
 ! A110  L(44,46,50,1,-2)      179.4478         estimate D2E/DX2                !
 ! A111  L(47,49,50,19,-2)     187.5844         estimate D2E/DX2                !
 ! A112  L(58,59,61,27,-2)     183.5927         estimate D2E/DX2                !
 ! D1    D(2,1,3,4)             58.7757         estimate D2E/DX2                !
 ! D2    D(2,1,3,5)            -57.3977         estimate D2E/DX2                !
 ! D3    D(2,1,3,7)           -179.3812         estimate D2E/DX2                !
 ! D4    D(53,1,3,4)           178.825          estimate D2E/DX2                !
 ! D5    D(53,1,3,5)            62.6516         estimate D2E/DX2                !
 ! D6    D(53,1,3,7)           -59.3319         estimate D2E/DX2                !
 ! D7    D(54,1,3,4)           -60.9229         estimate D2E/DX2                !
 ! D8    D(54,1,3,5)          -177.0963         estimate D2E/DX2                !
 ! D9    D(54,1,3,7)            60.9202         estimate D2E/DX2                !
 ! D10   D(1,3,7,6)            170.2478         estimate D2E/DX2                !
 ! D11   D(1,3,7,12)           -10.557          estimate D2E/DX2                !
 ! D12   D(4,3,7,6)            -67.3319         estimate D2E/DX2                !
 ! D13   D(4,3,7,12)           111.8632         estimate D2E/DX2                !
 ! D14   D(5,3,7,6)             47.7185         estimate D2E/DX2                !
 ! D15   D(5,3,7,12)          -133.0863         estimate D2E/DX2                !
 ! D16   D(8,6,7,3)            179.2133         estimate D2E/DX2                !
 ! D17   D(8,6,7,12)            -0.1302         estimate D2E/DX2                !
 ! D18   D(43,6,7,3)            -4.0716         estimate D2E/DX2                !
 ! D19   D(43,6,7,12)          176.585          estimate D2E/DX2                !
 ! D20   D(7,6,8,9)            179.7343         estimate D2E/DX2                !
 ! D21   D(7,6,8,10)             0.0083         estimate D2E/DX2                !
 ! D22   D(43,6,8,9)             2.4576         estimate D2E/DX2                !
 ! D23   D(43,6,8,10)         -177.2685         estimate D2E/DX2                !
 ! D24   D(7,6,43,19)           52.9112         estimate D2E/DX2                !
 ! D25   D(7,6,43,32)          -88.7838         estimate D2E/DX2                !
 ! D26   D(7,6,43,47)          166.3077         estimate D2E/DX2                !
 ! D27   D(8,6,43,19)         -130.6954         estimate D2E/DX2                !
 ! D28   D(8,6,43,32)           87.6096         estimate D2E/DX2                !
 ! D29   D(8,6,43,47)          -17.2989         estimate D2E/DX2                !
 ! D30   D(3,7,12,10)         -179.0916         estimate D2E/DX2                !
 ! D31   D(3,7,12,13)            0.8383         estimate D2E/DX2                !
 ! D32   D(6,7,12,10)            0.1985         estimate D2E/DX2                !
 ! D33   D(6,7,12,13)         -179.8715         estimate D2E/DX2                !
 ! D34   D(6,8,10,11)          179.9118         estimate D2E/DX2                !
 ! D35   D(6,8,10,12)            0.1161         estimate D2E/DX2                !
 ! D36   D(9,8,10,11)            0.1799         estimate D2E/DX2                !
 ! D37   D(9,8,10,12)         -179.6157         estimate D2E/DX2                !
 ! D38   D(8,10,58,59)         -71.4933         estimate D2E/DX2                !
 ! D39   D(8,10,58,60)          68.0723         estimate D2E/DX2                !
 ! D40   D(12,10,58,59)        108.3267         estimate D2E/DX2                !
 ! D41   D(12,10,58,60)       -112.1077         estimate D2E/DX2                !
 ! D42   D(8,10,12,7)           -0.1932         estimate D2E/DX2                !
 ! D43   D(8,10,12,13)         179.8689         estimate D2E/DX2                !
 ! D44   D(11,10,12,7)        -179.9862         estimate D2E/DX2                !
 ! D45   D(11,10,12,13)          0.0758         estimate D2E/DX2                !
 ! D46   D(15,14,16,17)        -61.2221         estimate D2E/DX2                !
 ! D47   D(15,14,16,18)       -177.8172         estimate D2E/DX2                !
 ! D48   D(15,14,16,20)         60.8441         estimate D2E/DX2                !
 ! D49   D(55,14,16,17)         58.5009         estimate D2E/DX2                !
 ! D50   D(55,14,16,18)        -58.0943         estimate D2E/DX2                !
 ! D51   D(55,14,16,20)       -179.433          estimate D2E/DX2                !
 ! D52   D(56,14,16,17)        178.3863         estimate D2E/DX2                !
 ! D53   D(56,14,16,18)         61.7912         estimate D2E/DX2                !
 ! D54   D(56,14,16,20)        -59.5475         estimate D2E/DX2                !
 ! D55   D(14,16,20,19)        174.0206         estimate D2E/DX2                !
 ! D56   D(14,16,20,25)         -5.242          estimate D2E/DX2                !
 ! D57   D(17,16,20,19)        -63.1467         estimate D2E/DX2                !
 ! D58   D(17,16,20,25)        117.5906         estimate D2E/DX2                !
 ! D59   D(18,16,20,19)         51.9069         estimate D2E/DX2                !
 ! D60   D(18,16,20,25)       -127.3557         estimate D2E/DX2                !
 ! D61   D(21,19,20,16)       -179.1157         estimate D2E/DX2                !
 ! D62   D(21,19,20,25)          0.2802         estimate D2E/DX2                !
 ! D63   D(43,19,20,16)         -0.7244         estimate D2E/DX2                !
 ! D64   D(43,19,20,25)        178.6715         estimate D2E/DX2                !
 ! D65   D(20,19,21,22)        178.2061         estimate D2E/DX2                !
 ! D66   D(20,19,21,23)         -0.6454         estimate D2E/DX2                !
 ! D67   D(43,19,21,22)         -0.2567         estimate D2E/DX2                !
 ! D68   D(43,19,21,23)       -179.1083         estimate D2E/DX2                !
 ! D69   D(20,19,43,6)          53.1751         estimate D2E/DX2                !
 ! D70   D(20,19,43,32)        169.2348         estimate D2E/DX2                !
 ! D71   D(20,19,43,47)        -63.7544         estimate D2E/DX2                !
 ! D72   D(21,19,43,6)        -128.6942         estimate D2E/DX2                !
 ! D73   D(21,19,43,32)        -12.6345         estimate D2E/DX2                !
 ! D74   D(21,19,43,47)        114.3763         estimate D2E/DX2                !
 ! D75   D(16,20,25,23)        179.5221         estimate D2E/DX2                !
 ! D76   D(16,20,25,26)         -0.8749         estimate D2E/DX2                !
 ! D77   D(19,20,25,23)          0.1727         estimate D2E/DX2                !
 ! D78   D(19,20,25,26)        179.7757         estimate D2E/DX2                !
 ! D79   D(19,21,23,24)        179.1004         estimate D2E/DX2                !
 ! D80   D(19,21,23,25)          0.7655         estimate D2E/DX2                !
 ! D81   D(22,21,23,24)          0.2292         estimate D2E/DX2                !
 ! D82   D(22,21,23,25)       -178.1057         estimate D2E/DX2                !
 ! D83   D(21,23,25,20)         -0.5619         estimate D2E/DX2                !
 ! D84   D(21,23,25,26)        179.7889         estimate D2E/DX2                !
 ! D85   D(24,23,25,20)       -178.8852         estimate D2E/DX2                !
 ! D86   D(24,23,25,26)          1.4655         estimate D2E/DX2                !
 ! D87   D(28,27,29,30)        170.8157         estimate D2E/DX2                !
 ! D88   D(28,27,29,31)         54.0433         estimate D2E/DX2                !
 ! D89   D(28,27,29,33)        -67.374          estimate D2E/DX2                !
 ! D90   D(40,27,29,30)        -70.3372         estimate D2E/DX2                !
 ! D91   D(40,27,29,31)        172.8903         estimate D2E/DX2                !
 ! D92   D(40,27,29,33)         51.4731         estimate D2E/DX2                !
 ! D93   D(57,27,29,30)         50.531          estimate D2E/DX2                !
 ! D94   D(57,27,29,31)        -66.2414         estimate D2E/DX2                !
 ! D95   D(57,27,29,33)        172.3413         estimate D2E/DX2                !
 ! D96   D(28,27,40,41)          5.6932         estimate D2E/DX2                !
 ! D97   D(28,27,40,42)       -176.3965         estimate D2E/DX2                !
 ! D98   D(29,27,40,41)       -115.0814         estimate D2E/DX2                !
 ! D99   D(29,27,40,42)         62.8289         estimate D2E/DX2                !
 ! D100  D(57,27,40,41)        124.315          estimate D2E/DX2                !
 ! D101  D(57,27,40,42)        -57.7746         estimate D2E/DX2                !
 ! D102  D(27,29,33,32)       -102.4389         estimate D2E/DX2                !
 ! D103  D(27,29,33,38)         77.1334         estimate D2E/DX2                !
 ! D104  D(30,29,33,32)         20.5896         estimate D2E/DX2                !
 ! D105  D(30,29,33,38)       -159.8382         estimate D2E/DX2                !
 ! D106  D(31,29,33,32)        136.8325         estimate D2E/DX2                !
 ! D107  D(31,29,33,38)        -43.5953         estimate D2E/DX2                !
 ! D108  D(34,32,33,29)       -179.9372         estimate D2E/DX2                !
 ! D109  D(34,32,33,38)          0.4159         estimate D2E/DX2                !
 ! D110  D(43,32,33,29)         -6.469          estimate D2E/DX2                !
 ! D111  D(43,32,33,38)        173.8841         estimate D2E/DX2                !
 ! D112  D(33,32,34,35)        178.3287         estimate D2E/DX2                !
 ! D113  D(33,32,34,36)         -0.4776         estimate D2E/DX2                !
 ! D114  D(43,32,34,35)          3.7392         estimate D2E/DX2                !
 ! D115  D(43,32,34,36)       -175.0672         estimate D2E/DX2                !
 ! D116  D(33,32,43,6)        -142.6024         estimate D2E/DX2                !
 ! D117  D(33,32,43,19)         98.2111         estimate D2E/DX2                !
 ! D118  D(33,32,43,47)        -30.0265         estimate D2E/DX2                !
 ! D119  D(34,32,43,6)          30.2159         estimate D2E/DX2                !
 ! D120  D(34,32,43,19)        -88.9707         estimate D2E/DX2                !
 ! D121  D(34,32,43,47)        142.7918         estimate D2E/DX2                !
 ! D122  D(29,33,38,36)       -179.8233         estimate D2E/DX2                !
 ! D123  D(29,33,38,39)          0.8115         estimate D2E/DX2                !
 ! D124  D(32,33,38,36)         -0.2002         estimate D2E/DX2                !
 ! D125  D(32,33,38,39)       -179.5654         estimate D2E/DX2                !
 ! D126  D(32,34,36,37)        179.6857         estimate D2E/DX2                !
 ! D127  D(32,34,36,38)          0.3614         estimate D2E/DX2                !
 ! D128  D(35,34,36,37)          0.848          estimate D2E/DX2                !
 ! D129  D(35,34,36,38)       -178.4763         estimate D2E/DX2                !
 ! D130  D(34,36,38,33)         -0.0877         estimate D2E/DX2                !
 ! D131  D(34,36,38,39)        179.3474         estimate D2E/DX2                !
 ! D132  D(37,36,38,33)       -179.4055         estimate D2E/DX2                !
 ! D133  D(37,36,38,39)          0.0296         estimate D2E/DX2                !
 ! D134  D(27,40,42,51)          4.3754         estimate D2E/DX2                !
 ! D135  D(41,40,42,51)       -177.6415         estimate D2E/DX2                !
 ! D136  D(6,43,47,48)         -42.996          estimate D2E/DX2                !
 ! D137  D(6,43,47,49)        -170.1317         estimate D2E/DX2                !
 ! D138  D(19,43,47,48)         69.9498         estimate D2E/DX2                !
 ! D139  D(19,43,47,49)        -57.1859         estimate D2E/DX2                !
 ! D140  D(32,43,47,48)       -144.0744         estimate D2E/DX2                !
 ! D141  D(32,43,47,49)         88.7898         estimate D2E/DX2                !
 ! D142  D(45,44,50,49)        -21.1158         estimate D2E/DX2                !
 ! D143  D(45,44,50,52)       -140.8566         estimate D2E/DX2                !
 ! D144  D(43,47,50,46)         75.7618         estimate D2E/DX2                !
 ! D145  D(43,47,50,52)       -157.3529         estimate D2E/DX2                !
 ! D146  D(48,47,50,46)        -53.5211         estimate D2E/DX2                !
 ! D147  D(48,47,50,52)         73.3641         estimate D2E/DX2                !
 ! D148  D(11,58,61,62)       -141.515          estimate D2E/DX2                !
 ! D149  D(11,58,61,63)         85.2552         estimate D2E/DX2                !
 ! D150  D(60,58,61,62)         73.9991         estimate D2E/DX2                !
 ! D151  D(60,58,61,63)        -59.2307         estimate D2E/DX2                !
 --------------------------------------------------------------------------------
 Trust Radius=7.00D-02 FncErr=1.00D-07 GrdErr=1.00D-06 EigMax=2.50D+02 EigMin=1.00D-04
 Number of steps in this run=    347 maximum allowed number of steps=    378.
 GradGradGradGradGradGradGradGradGradGradGradGradGradGradGradGradGradGrad

 Stoichiometry    C16H33N6O7Zn(1+)
 Framework group  C1[X(C16H33N6O7Zn)]
 Deg. of freedom   183
 Full point group                 C1      NOp   1
 Largest Abelian subgroup         C1      NOp   1
 Largest concise Abelian subgroup C1      NOp   1
                         Standard orientation:                         
 ---------------------------------------------------------------------
 Center     Atomic      Atomic             Coordinates (Angstroms)
 Number     Number       Type             X           Y           Z
 ---------------------------------------------------------------------
      1          6           0        2.583612    1.508959    3.860534
      2          1           0        2.016715    1.768382    4.750652
      3          6           0        1.643243    1.276540    2.676015
      4          1           0        1.051307    2.176705    2.486742
      5          1           0        0.922464    0.491397    2.919182
      6          7           0        1.724681    0.454330    0.284459
      7          6           0        2.369899    0.900815    1.423375
      8          6           0        2.660483    0.232712   -0.625213
      9          1           0        2.488505   -0.127102   -1.625751
     10          7           0        3.873489    0.512297   -0.133253
     11          1           0        4.763590    0.420818   -0.642728
     12          6           0        3.710873    0.933770    1.162084
     13          1           0        4.546739    1.217146    1.776731
     14          6           0       -0.045294    4.935423   -1.318265
     15          1           0        0.036291    5.580520   -0.438924
     16          6           0       -0.014130    3.456759   -0.921105
     17          1           0        0.936221    3.218303   -0.427673
     18          1           0       -0.058009    2.829479   -1.821021
     19          7           0       -1.376429    1.750308    0.372154
     20          6           0       -1.141071    3.061625   -0.013496
     21          6           0       -2.445256    1.758941    1.147243
     22          1           0       -2.905548    0.891645    1.589436
     23          7           0       -2.901773    3.006995    1.292210
     24          1           0       -3.715006    3.275898    1.826658
     25          6           0       -2.097079    3.851291    0.559691
     26          1           0       -2.267357    4.909532    0.516686
     27          6           0       -3.262176   -3.417357   -0.686346
     28          1           0       -3.401813   -4.411964   -0.264983
     29          6           0       -1.806161   -3.227881   -1.164025
     30          1           0       -1.707969   -2.302332   -1.727381
     31          1           0       -1.564917   -4.043379   -1.845827
     32          7           0       -0.238012   -2.037923    0.438050
     33          6           0       -0.810229   -3.205331   -0.047588
     34          6           0        0.585063   -2.395184    1.409350
     35          1           0        1.209013   -1.732809    1.982332
     36          7           0        0.561514   -3.722167    1.576432
     37          1           0        1.106193   -4.236435    2.252895
     38          6           0       -0.312153   -4.256774    0.666248
     39          1           0       -0.496949   -5.314389    0.595928
     40          6           0       -3.598193   -2.413981    0.396875
     41          8           0       -3.854781   -2.731617    1.535257
     42          8           0       -3.562008   -1.127613    0.061714
     43         30           0       -0.306201    0.014547   -0.179336
     44          8           0       -3.837588    2.364166   -1.926495
     45          1           0       -3.077214    2.828673   -1.559994
     46          1           0       -3.541708    1.445674   -2.065995
     47          8           0       -0.554605   -0.164400   -2.148580
     48          1           0       -0.121571    0.476976   -2.717500
     49          1           0       -1.940177   -0.221580   -2.362730
     50          8           0       -3.004586   -0.288928   -2.324578
     51          1           0       -3.378710   -0.934002   -0.910576
     52          1           0       -3.324119   -0.710610   -3.127971
     53          1           0        3.166199    0.612604    4.074693
     54          1           0        3.277301    2.324621    3.654669
     55          1           0        0.787992    5.162227   -1.983573
     56          1           0       -0.974734    5.180448   -1.836311
     57          1           0       -3.937589   -3.288220   -1.529941
     58          8           0        6.309334    0.286225   -1.462351
     59          1           0        6.707021   -0.582811   -1.673516
     60          1           0        6.523496    0.870831   -2.194923
     61          8           0        7.376999   -2.204016   -1.943566
     62          1           0        8.325995   -2.335596   -1.853039
     63          1           0        7.119390   -2.696432   -2.730011
 ---------------------------------------------------------------------
 Rotational constants (GHZ):           0.1408954           0.1003576           0.0760867
 General basis read from cards:  (5D, 7F)
 ======================================================================================================
                                       Pseudopotential Parameters
 ======================================================================================================
  Center     Atomic      Valence      Angular      Power
  Number     Number     Electrons     Momentum     of R      Exponent        Coefficient   SO-Coeffient
 ======================================================================================================
    1          6
                                   No pseudopotential on this center.
    2          1
                                   No pseudopotential on this center.
    3          6
                                   No pseudopotential on this center.
    4          1
                                   No pseudopotential on this center.
    5          1
                                   No pseudopotential on this center.
    6          7
                                   No pseudopotential on this center.
    7          6
                                   No pseudopotential on this center.
    8          6
                                   No pseudopotential on this center.
    9          1
                                   No pseudopotential on this center.
   10          7
                                   No pseudopotential on this center.
   11          1
                                   No pseudopotential on this center.
   12          6
                                   No pseudopotential on this center.
   13          1
                                   No pseudopotential on this center.
   14          6
                                   No pseudopotential on this center.
   15          1
                                   No pseudopotential on this center.
   16          6
                                   No pseudopotential on this center.
   17          1
                                   No pseudopotential on this center.
   18          1
                                   No pseudopotential on this center.
   19          7
                                   No pseudopotential on this center.
   20          6
                                   No pseudopotential on this center.
   21          6
                                   No pseudopotential on this center.
   22          1
                                   No pseudopotential on this center.
   23          7
                                   No pseudopotential on this center.
   24          1
                                   No pseudopotential on this center.
   25          6
                                   No pseudopotential on this center.
   26          1
                                   No pseudopotential on this center.
   27          6
                                   No pseudopotential on this center.
   28          1
                                   No pseudopotential on this center.
   29          6
                                   No pseudopotential on this center.
   30          1
                                   No pseudopotential on this center.
   31          1
                                   No pseudopotential on this center.
   32          7
                                   No pseudopotential on this center.
   33          6
                                   No pseudopotential on this center.
   34          6
                                   No pseudopotential on this center.
   35          1
                                   No pseudopotential on this center.
   36          7
                                   No pseudopotential on this center.
   37          1
                                   No pseudopotential on this center.
   38          6
                                   No pseudopotential on this center.
   39          1
                                   No pseudopotential on this center.
   40          6
                                   No pseudopotential on this center.
   41          8
                                   No pseudopotential on this center.
   42          8
                                   No pseudopotential on this center.
   43         30           12
                                      F and up 
                                                     1      386.7379660      -18.00000000    0.00000000
                                                     2       72.8587359     -124.35274030    0.00000000
                                                     2       15.9066170      -30.66018220    0.00000000
                                                     2        4.3502340      -10.63589890    0.00000000
                                                     2        1.2842199       -0.76836230    0.00000000
                                      S - F
                                                     0       19.0867858        3.00000000    0.00000000
                                                     1        5.0231080       22.52342250    0.00000000
                                                     2        1.2701744       48.44659420    0.00000000
                                                     2        1.0671287      -44.55601190    0.00000000
                                                     2        0.9264190       12.99839580    0.00000000
                                      P - F
                                                     0       43.4927750        5.00000000    0.00000000
                                                     1       20.8692669       20.74355890    0.00000000
                                                     2       21.7118378       90.30271580    0.00000000
                                                     2        6.3616915       74.66103160    0.00000000
                                                     2        1.2291195        9.88944240    0.00000000
                                      D - F
                                                     2       13.5851800       -4.84903590    0.00000000
                                                     2        9.8373050        3.69133790    0.00000000
                                                     2        0.8373113       -0.50373190    0.00000000
   44          8
                                   No pseudopotential on this center.
   45          1
                                   No pseudopotential on this center.
   46          1
                                   No pseudopotential on this center.
   47          8
                                   No pseudopotential on this center.
   48          1
                                   No pseudopotential on this center.
   49          1
                                   No pseudopotential on this center.
   50          8
                                   No pseudopotential on this center.
   51          1
                                   No pseudopotential on this center.
   52          1
                                   No pseudopotential on this center.
   53          1
                                   No pseudopotential on this center.
   54          1
                                   No pseudopotential on this center.
   55          1
                                   No pseudopotential on this center.
   56          1
                                   No pseudopotential on this center.
   57          1
                                   No pseudopotential on this center.
   58          8
                                   No pseudopotential on this center.
   59          1
                                   No pseudopotential on this center.
   60          1
                                   No pseudopotential on this center.
   61          8
                                   No pseudopotential on this center.
   62          1
                                   No pseudopotential on this center.
   63          1
                                   No pseudopotential on this center.
 ======================================================================================================
 There are   798 symmetry adapted cartesian basis functions of A   symmetry.
 There are   767 symmetry adapted basis functions of A   symmetry.
   767 basis functions,  1318 primitive gaussians,   798 cartesian basis functions
   119 alpha electrons      119 beta electrons
       nuclear repulsion energy      3400.3407560877 Hartrees.
 NAtoms=   63 NActive=   63 NUniq=   63 SFac= 1.00D+00 NAtFMM=   60 NAOKFM=T Big=T
 Integral buffers will be    131072 words long.
 Raffenetti 2 integral format.
 Two-electron integral symmetry is turned on.
 ------------------------------------------------------------------------------
 Polarizable Continuum Model (PCM)
 =================================
 Model                : PCM.
 Atomic radii         : UFF (Universal Force Field).
 Polarization charges : Total charges.
 Charge compensation  : None.
 Solution method      : On-the-fly selection.
 Cavity type          : Scaled VdW (van der Waals Surface) (Alpha=1.100).
 Cavity algorithm     : GePol (No added spheres)
                        Default sphere list used, NSphG=   63.
                        Lebedev-Laikov grids with approx.  5.0 points / Ang**2.
                        Smoothing algorithm: York/Karplus (Gamma=1.0000).
                        Polarization charges: spherical gaussians, with
                                              point-specific exponents (IZeta= 3).
                        Self-potential: point-specific (ISelfS= 7).
                        Self-field    : sphere-specific E.n sum rule (ISelfD= 2).
 1st derivatives      : Analytical E(r).r(x)/FMM algorithm (CHGder, D1EAlg=3).
                        Cavity 1st derivative terms included.
 Solvent              : Water, Eps=  78.355300 Eps(inf)=   1.777849
 ------------------------------------------------------------------------------
 One-electron integrals computed using PRISM.
   1 Symmetry operations used in ECPInt.
 ECPInt:  NShTT=   79800 NPrTT=  267559 LenC2=   63213 LenP2D=  137959.
 LDataN:  DoStor=T MaxTD1= 5 Len=  102
 NBasis=   767 RedAO= T EigKep=  8.44D-05  NBF=   767
 NBsUse=   767 1.00D-06 EigRej= -1.00D+00 NBFU=   767
 ExpMin= 3.51D-02 ExpMax= 2.70D+04 ExpMxC= 9.22D+02 IAcc=3 IRadAn=         5 AccDes= 0.00D+00
 Harris functional with IExCor= 1009 and IRadAn=       5 diagonalized for initial guess.
 HarFok:  IExCor= 1009 AccDes= 0.00D+00 IRadAn=         5 IDoV= 1 UseB2=F ITyADJ=14
 ICtDFT=  3500011 ScaDFX=  1.000000  1.000000  1.000000  1.000000
 FoFCou: FMM=F IPFlag=           0 FMFlag=      100000 FMFlg1=        2001
         NFxFlg=           0 DoJE=T BraDBF=F KetDBF=T FulRan=T
         wScrn=  0.000000 ICntrl=       500 IOpCl=  0 I1Cent=   200000004 NGrid=           0
         NMat0=    1 NMatS0=      1 NMatT0=    0 NMatD0=    1 NMtDS0=    0 NMtDT0=    0
 Petite list used in FoFCou.
 Requested convergence on RMS density matrix=1.00D-08 within 128 cycles.
 Requested convergence on MAX density matrix=1.00D-06.
 Requested convergence on             energy=1.00D-06.
 No special actions if energy rises.
 Inv3:  Mode=1 IEnd=    65903907.
 Iteration    1 A*A^-1 deviation from unit magnitude is 3.66D-15 for   2725.
 Iteration    1 A*A^-1 deviation from orthogonality  is 2.98D-15 for   2253     98.
 Iteration    1 A^-1*A deviation from unit magnitude is 3.77D-15 for   2013.
 Iteration    1 A^-1*A deviation from orthogonality  is 1.17D-13 for   3116   3008.
 Error on total polarization charges =  0.01665
 SCF Done:  E(RM062X) =  -1550.12411106     A.U. after   13 cycles
            NFock= 13  Conv=0.52D-08     -V/T= 1.9734

 **********************************************************************

            Population analysis using the SCF density.

 **********************************************************************

 Orbital symmetries:
       Occupied  (A) (A) (A) (A) (A) (A) (A) (A) (A) (A) (A) (A)
                 (A) (A) (A) (A) (A) (A) (A) (A) (A) (A) (A) (A)
                 (A) (A) (A) (A) (A) (A) (A) (A) (A) (A) (A) (A)
                 (A) (A) (A) (A) (A) (A) (A) (A) (A) (A) (A) (A)
                 (A) (A) (A) (A) (A) (A) (A) (A) (A) (A) (A) (A)
                 (A) (A) (A) (A) (A) (A) (A) (A) (A) (A) (A) (A)
                 (A) (A) (A) (A) (A) (A) (A) (A) (A) (A) (A) (A)
                 (A) (A) (A) (A) (A) (A) (A) (A) (A) (A) (A) (A)
                 (A) (A) (A) (A) (A) (A) (A) (A) (A) (A) (A) (A)
                 (A) (A) (A) (A) (A) (A) (A) (A) (A) (A) (A)
       Virtual   (A) (A) (A) (A) (A) (A) (A) (A) (A) (A) (A) (A)
                 (A) (A) (A) (A) (A) (A) (A) (A) (A) (A) (A) (A)
                 (A) (A) (A) (A) (A) (A) (A) (A) (A) (A) (A) (A)
                 (A) (A) (A) (A) (A) (A) (A) (A) (A) (A) (A) (A)
                 (A) (A) (A) (A) (A) (A) (A) (A) (A) (A) (A) (A)
                 (A) (A) (A) (A) (A) (A) (A) (A) (A) (A) (A) (A)
                 (A) (A) (A) (A) (A) (A) (A) (A) (A) (A) (A) (A)
                 (A) (A) (A) (A) (A) (A) (A) (A) (A) (A) (A) (A)
                 (A) (A) (A) (A) (A) (A) (A) (A) (A) (A) (A) (A)
                 (A) (A) (A) (A) (A) (A) (A) (A) (A) (A) (A) (A)
                 (A) (A) (A) (A) (A) (A) (A) (A) (A) (A) (A) (A)
                 (A) (A) (A) (A) (A) (A) (A) (A) (A) (A) (A) (A)
                 (A) (A) (A) (A) (A) (A) (A) (A) (A) (A) (A) (A)
                 (A) (A) (A) (A) (A) (A) (A) (A) (A) (A) (A) (A)
                 (A) (A) (A) (A) (A) (A) (A) (A) (A) (A) (A) (A)
                 (A) (A) (A) (A) (A) (A) (A) (A) (A) (A) (A) (A)
                 (A) (A) (A) (A) (A) (A) (A) (A) (A) (A) (A) (A)
                 (A) (A) (A) (A) (A) (A) (A) (A) (A) (A) (A) (A)
                 (A) (A) (A) (A) (A) (A) (A) (A) (A) (A) (A) (A)
                 (A) (A) (A) (A) (A) (A) (A) (A) (A) (A) (A) (A)
                 (A) (A) (A) (A) (A) (A) (A) (A) (A) (A) (A) (A)
                 (A) (A) (A) (A) (A) (A) (A) (A) (A) (A) (A) (A)
                 (A) (A) (A) (A) (A) (A) (A) (A) (A) (A) (A) (A)
                 (A) (A) (A) (A) (A) (A) (A) (A) (A) (A) (A) (A)
                 (A) (A) (A) (A) (A) (A) (A) (A) (A) (A) (A) (A)
                 (A) (A) (A) (A) (A) (A) (A) (A) (A) (A) (A) (A)
                 (A) (A) (A) (A) (A) (A) (A) (A) (A) (A) (A) (A)
                 (A) (A) (A) (A) (A) (A) (A) (A) (A) (A) (A) (A)
                 (A) (A) (A) (A) (A) (A) (A) (A) (A) (A) (A) (A)
                 (A) (A) (A) (A) (A) (A) (A) (A) (A) (A) (A) (A)
                 (A) (A) (A) (A) (A) (A) (A) (A) (A) (A) (A) (A)
                 (A) (A) (A) (A) (A) (A) (A) (A) (A) (A) (A) (A)
                 (A) (A) (A) (A) (A) (A) (A) (A) (A) (A) (A) (A)
                 (A) (A) (A) (A) (A) (A) (A) (A) (A) (A) (A) (A)
                 (A) (A) (A) (A) (A) (A) (A) (A) (A) (A) (A) (A)
                 (A) (A) (A) (A) (A) (A) (A) (A) (A) (A) (A) (A)
                 (A) (A) (A) (A) (A) (A) (A) (A) (A) (A) (A) (A)
                 (A) (A) (A) (A) (A) (A) (A) (A) (A) (A) (A) (A)
                 (A) (A) (A) (A) (A) (A) (A) (A) (A) (A) (A) (A)
                 (A) (A) (A) (A) (A) (A) (A) (A) (A) (A) (A) (A)
                 (A) (A) (A) (A) (A) (A) (A) (A) (A) (A) (A) (A)
                 (A) (A) (A) (A) (A) (A) (A) (A) (A) (A) (A) (A)
                 (A) (A) (A) (A) (A) (A) (A) (A) (A) (A) (A) (A)
                 (A) (A) (A) (A) (A) (A) (A) (A) (A) (A) (A) (A)
                 (A) (A) (A) (A) (A) (A) (A) (A) (A) (A) (A) (A)
                 (A) (A) (A) (A) (A) (A) (A) (A) (A) (A) (A) (A)
                 (A) (A) (A) (A) (A) (A) (A) (A) (A) (A) (A) (A)
                 (A) (A) (A) (A) (A) (A) (A) (A) (A) (A) (A) (A)
                 (A) (A) (A) (A) (A) (A) (A) (A) (A) (A) (A) (A)
                 (A) (A) (A) (A) (A) (A) (A) (A) (A) (A) (A) (A)
                 (A) (A) (A) (A) (A) (A) (A) (A) (A) (A) (A) (A)
                 (A) (A) (A) (A) (A) (A) (A) (A) (A) (A) (A) (A)
                 (A) (A) (A) (A) (A) (A) (A) (A) (A) (A) (A) (A)
                 (A) (A) (A) (A) (A) (A) (A) (A) (A) (A) (A) (A)
 The electronic state is 1-A.
 Alpha  occ. eigenvalues --  -19.65559 -19.64746 -19.62829 -19.62161 -19.61670
 Alpha  occ. eigenvalues --  -19.60698 -19.58766 -14.82905 -14.82866 -14.80936
 Alpha  occ. eigenvalues --  -14.78438 -14.78421 -14.77557 -10.67709 -10.62693
 Alpha  occ. eigenvalues --  -10.62572 -10.61786 -10.58840 -10.58652 -10.58580
 Alpha  occ. eigenvalues --  -10.58450 -10.57900 -10.57620 -10.55671 -10.55632
 Alpha  occ. eigenvalues --  -10.55248 -10.54878 -10.53255 -10.52982  -1.22805
 Alpha  occ. eigenvalues --   -1.16701  -1.16617  -1.15835  -1.15497  -1.14113
 Alpha  occ. eigenvalues --   -1.13496  -1.12488  -1.11157  -1.05935  -1.01264
 Alpha  occ. eigenvalues --   -1.01181  -1.00075  -0.91669  -0.90732  -0.90206
 Alpha  occ. eigenvalues --   -0.85930  -0.84240  -0.83527  -0.77303  -0.75069
 Alpha  occ. eigenvalues --   -0.74403  -0.73141  -0.72516  -0.71831  -0.70888
 Alpha  occ. eigenvalues --   -0.70658  -0.70309  -0.70204  -0.70048  -0.69650
 Alpha  occ. eigenvalues --   -0.68023  -0.67467  -0.66715  -0.65139  -0.64715
 Alpha  occ. eigenvalues --   -0.64061  -0.63023  -0.62091  -0.61763  -0.59927
 Alpha  occ. eigenvalues --   -0.59634  -0.56494  -0.55835  -0.55551  -0.55027
 Alpha  occ. eigenvalues --   -0.54571  -0.54089  -0.53828  -0.53376  -0.52542
 Alpha  occ. eigenvalues --   -0.52390  -0.51960  -0.51684  -0.51635  -0.51172
 Alpha  occ. eigenvalues --   -0.51152  -0.51108  -0.50832  -0.50246  -0.49520
 Alpha  occ. eigenvalues --   -0.47353  -0.47119  -0.46605  -0.45670  -0.45113
 Alpha  occ. eigenvalues --   -0.44404  -0.43781  -0.43508  -0.43330  -0.42999
 Alpha  occ. eigenvalues --   -0.42741  -0.42463  -0.42270  -0.42155  -0.41709
 Alpha  occ. eigenvalues --   -0.40919  -0.39981  -0.39495  -0.39027  -0.38610
 Alpha  occ. eigenvalues --   -0.38068  -0.37648  -0.37049  -0.36539  -0.36259
 Alpha  occ. eigenvalues --   -0.35587  -0.30875  -0.30502  -0.29878
 Alpha virt. eigenvalues --    0.02674   0.03004   0.03428   0.03589   0.03826
 Alpha virt. eigenvalues --    0.04221   0.04628   0.04920   0.05511   0.05975
 Alpha virt. eigenvalues --    0.06403   0.07111   0.07739   0.08043   0.08393
 Alpha virt. eigenvalues --    0.08779   0.08990   0.09487   0.09970   0.10090
 Alpha virt. eigenvalues --    0.10457   0.11388   0.11769   0.12510   0.12868
 Alpha virt. eigenvalues --    0.13223   0.13710   0.13758   0.14269   0.14340
 Alpha virt. eigenvalues --    0.14959   0.15579   0.15609   0.16105   0.16358
 Alpha virt. eigenvalues --    0.16772   0.16900   0.17246   0.17505   0.17816
 Alpha virt. eigenvalues --    0.18528   0.19155   0.19197   0.19326   0.19853
 Alpha virt. eigenvalues --    0.20231   0.20611   0.20903   0.21105   0.21797
 Alpha virt. eigenvalues --    0.21871   0.22165   0.22393   0.23030   0.23273
 Alpha virt. eigenvalues --    0.23494   0.23864   0.24316   0.24548   0.24832
 Alpha virt. eigenvalues --    0.25336   0.25596   0.25926   0.26498   0.26961
 Alpha virt. eigenvalues --    0.27223   0.27795   0.27954   0.28439   0.28538
 Alpha virt. eigenvalues --    0.29056   0.29485   0.29590   0.30567   0.31021
 Alpha virt. eigenvalues --    0.31182   0.32111   0.32488   0.32949   0.33619
 Alpha virt. eigenvalues --    0.33726   0.34468   0.34819   0.35071   0.36044
 Alpha virt. eigenvalues --    0.36142   0.36550   0.36681   0.37082   0.37555
 Alpha virt. eigenvalues --    0.37930   0.38378   0.38724   0.38990   0.39260
 Alpha virt. eigenvalues --    0.39808   0.40049   0.40311   0.40906   0.41094
 Alpha virt. eigenvalues --    0.41210   0.41686   0.42081   0.42510   0.42640
 Alpha virt. eigenvalues --    0.42726   0.43228   0.43505   0.43739   0.44191
 Alpha virt. eigenvalues --    0.44331   0.45085   0.45251   0.45511   0.45801
 Alpha virt. eigenvalues --    0.45869   0.46221   0.46706   0.46991   0.47074
 Alpha virt. eigenvalues --    0.47673   0.47720   0.48150   0.48221   0.48545
 Alpha virt. eigenvalues --    0.49080   0.49288   0.49904   0.50473   0.50771
 Alpha virt. eigenvalues --    0.51008   0.51198   0.51511   0.51643   0.51817
 Alpha virt. eigenvalues --    0.52243   0.52684   0.52862   0.53048   0.53411
 Alpha virt. eigenvalues --    0.53613   0.53866   0.54355   0.54478   0.54671
 Alpha virt. eigenvalues --    0.55051   0.55746   0.55955   0.56943   0.56954
 Alpha virt. eigenvalues --    0.57255   0.57468   0.57939   0.58085   0.58507
 Alpha virt. eigenvalues --    0.59299   0.59409   0.60200   0.60452   0.60748
 Alpha virt. eigenvalues --    0.61272   0.61483   0.61850   0.62161   0.62633
 Alpha virt. eigenvalues --    0.62989   0.63411   0.63969   0.64760   0.65078
 Alpha virt. eigenvalues --    0.65575   0.65840   0.66443   0.66613   0.67455
 Alpha virt. eigenvalues --    0.67978   0.68449   0.69071   0.69241   0.69701
 Alpha virt. eigenvalues --    0.70172   0.70509   0.70925   0.71799   0.72104
 Alpha virt. eigenvalues --    0.72707   0.73126   0.73592   0.74072   0.74936
 Alpha virt. eigenvalues --    0.75319   0.75803   0.76410   0.76813   0.78108
 Alpha virt. eigenvalues --    0.78580   0.79528   0.79948   0.80350   0.81054
 Alpha virt. eigenvalues --    0.82191   0.82627   0.83667   0.84376   0.84576
 Alpha virt. eigenvalues --    0.85174   0.86291   0.86706   0.86947   0.87363
 Alpha virt. eigenvalues --    0.89324   0.89866   0.90191   0.92090   0.92552
 Alpha virt. eigenvalues --    0.95403   0.96274   1.00198   1.02426   1.05635
 Alpha virt. eigenvalues --    1.18163   1.19467   1.24867   1.25773   1.27298
 Alpha virt. eigenvalues --    1.27843   1.28812   1.29767   1.30058   1.30656
 Alpha virt. eigenvalues --    1.31180   1.31544   1.32628   1.32890   1.33511
 Alpha virt. eigenvalues --    1.33769   1.33979   1.34760   1.35126   1.35700
 Alpha virt. eigenvalues --    1.35867   1.35965   1.36111   1.36671   1.37075
 Alpha virt. eigenvalues --    1.37269   1.37404   1.37991   1.38508   1.39109
 Alpha virt. eigenvalues --    1.39176   1.39701   1.40043   1.40584   1.40858
 Alpha virt. eigenvalues --    1.41306   1.41719   1.41906   1.42216   1.42489
 Alpha virt. eigenvalues --    1.43390   1.43811   1.44059   1.44489   1.45086
 Alpha virt. eigenvalues --    1.45571   1.45887   1.46339   1.46924   1.47247
 Alpha virt. eigenvalues --    1.47728   1.48456   1.48637   1.49028   1.49810
 Alpha virt. eigenvalues --    1.50094   1.50795   1.50986   1.51605   1.51904
 Alpha virt. eigenvalues --    1.51955   1.52692   1.52818   1.53458   1.53818
 Alpha virt. eigenvalues --    1.55179   1.56304   1.56859   1.57539   1.57736
 Alpha virt. eigenvalues --    1.58363   1.58584   1.59243   1.59291   1.59398
 Alpha virt. eigenvalues --    1.60127   1.60298   1.61012   1.61165   1.61447
 Alpha virt. eigenvalues --    1.61979   1.63118   1.63505   1.64136   1.64486
 Alpha virt. eigenvalues --    1.65175   1.65455   1.65680   1.66212   1.66625
 Alpha virt. eigenvalues --    1.67657   1.68168   1.68667   1.69453   1.70327
 Alpha virt. eigenvalues --    1.70966   1.71387   1.72082   1.72192   1.72891
 Alpha virt. eigenvalues --    1.73553   1.73720   1.74422   1.75019   1.75673
 Alpha virt. eigenvalues --    1.75946   1.76273   1.76517   1.77025   1.77423
 Alpha virt. eigenvalues --    1.77742   1.78593   1.79024   1.79232   1.79813
 Alpha virt. eigenvalues --    1.80845   1.81069   1.81949   1.82211   1.82657
 Alpha virt. eigenvalues --    1.82847   1.82862   1.83543   1.83856   1.84091
 Alpha virt. eigenvalues --    1.84269   1.84616   1.85127   1.85551   1.86014
 Alpha virt. eigenvalues --    1.86300   1.87319   1.88131   1.89078   1.89628
 Alpha virt. eigenvalues --    1.90913   1.91460   1.91531   1.93103   1.94095
 Alpha virt. eigenvalues --    1.94632   1.95544   1.96029   1.96607   1.97570
 Alpha virt. eigenvalues --    1.97978   1.98592   1.99703   1.99983   2.00403
 Alpha virt. eigenvalues --    2.00541   2.00642   2.01497   2.01731   2.02188
 Alpha virt. eigenvalues --    2.02992   2.04063   2.04571   2.04942   2.05232
 Alpha virt. eigenvalues --    2.06071   2.06532   2.07151   2.07798   2.08130
 Alpha virt. eigenvalues --    2.08719   2.09368   2.12644   2.13259   2.13477
 Alpha virt. eigenvalues --    2.14542   2.15280   2.17496   2.17737   2.19345
 Alpha virt. eigenvalues --    2.19818   2.20359   2.21332   2.21432   2.22259
 Alpha virt. eigenvalues --    2.23176   2.23483   2.24042   2.24299   2.24795
 Alpha virt. eigenvalues --    2.25190   2.26679   2.27358   2.28300   2.28465
 Alpha virt. eigenvalues --    2.28709   2.29372   2.29969   2.30679   2.30809
 Alpha virt. eigenvalues --    2.31432   2.31632   2.31933   2.32281   2.32996
 Alpha virt. eigenvalues --    2.33725   2.33895   2.34336   2.34599   2.35459
 Alpha virt. eigenvalues --    2.35572   2.35996   2.37375   2.38343   2.40043
 Alpha virt. eigenvalues --    2.40583   2.41516   2.42442   2.43012   2.43599
 Alpha virt. eigenvalues --    2.44115   2.44465   2.45259   2.45400   2.45745
 Alpha virt. eigenvalues --    2.45988   2.46804   2.47619   2.48416   2.49018
 Alpha virt. eigenvalues --    2.49906   2.50415   2.50801   2.51984   2.52799
 Alpha virt. eigenvalues --    2.53022   2.53477   2.54198   2.55384   2.55809
 Alpha virt. eigenvalues --    2.56224   2.57056   2.57093   2.58184   2.58745
 Alpha virt. eigenvalues --    2.59859   2.60206   2.60778   2.61575   2.61977
 Alpha virt. eigenvalues --    2.62591   2.63094   2.63990   2.64115   2.64632
 Alpha virt. eigenvalues --    2.65055   2.65945   2.66447   2.67309   2.67515
 Alpha virt. eigenvalues --    2.68243   2.68906   2.69343   2.70062   2.70335
 Alpha virt. eigenvalues --    2.71289   2.71730   2.72478   2.73363   2.73935
 Alpha virt. eigenvalues --    2.74344   2.74797   2.75146   2.75440   2.75884
 Alpha virt. eigenvalues --    2.76877   2.77063   2.77477   2.78524   2.78608
 Alpha virt. eigenvalues --    2.79095   2.79184   2.79708   2.79756   2.80111
 Alpha virt. eigenvalues --    2.80633   2.81160   2.82131   2.82387   2.82770
 Alpha virt. eigenvalues --    2.83636   2.84263   2.84460   2.84865   2.85163
 Alpha virt. eigenvalues --    2.85697   2.86345   2.86433   2.86684   2.87206
 Alpha virt. eigenvalues --    2.88002   2.88854   2.89422   2.89544   2.90497
 Alpha virt. eigenvalues --    2.91470   2.91852   2.92431   2.92883   2.93244
 Alpha virt. eigenvalues --    2.94659   2.95367   2.95967   2.96778   2.97620
 Alpha virt. eigenvalues --    2.98559   2.99463   3.00486   3.00974   3.01777
 Alpha virt. eigenvalues --    3.02701   3.02769   3.03161   3.03307   3.04766
 Alpha virt. eigenvalues --    3.04873   3.05576   3.07107   3.08218   3.08416
 Alpha virt. eigenvalues --    3.11127   3.11245   3.11498   3.13005   3.13188
 Alpha virt. eigenvalues --    3.14184   3.15030   3.15209   3.16595   3.16848
 Alpha virt. eigenvalues --    3.18951   3.19184   3.20706   3.20834   3.21310
 Alpha virt. eigenvalues --    3.21695   3.22709   3.23625   3.23781   3.24241
 Alpha virt. eigenvalues --    3.24732   3.26818   3.28179   3.28991   3.29987
 Alpha virt. eigenvalues --    3.30987   3.31405   3.32597   3.33481   3.33820
 Alpha virt. eigenvalues --    3.33852   3.36911   3.37379   3.37980   3.38939
 Alpha virt. eigenvalues --    3.40367   3.40574   3.41283   3.42463   3.43289
 Alpha virt. eigenvalues --    3.44807   3.46133   3.47450   3.48539   3.49032
 Alpha virt. eigenvalues --    3.53321   3.53726   3.56252   3.64236   3.65344
 Alpha virt. eigenvalues --    3.66408   3.67442   3.68189   3.68440   3.69476
 Alpha virt. eigenvalues --    3.84302   3.85284   3.87002   3.90696   3.91794
 Alpha virt. eigenvalues --    3.92854   4.04816   4.07480   4.16390   4.17138
 Alpha virt. eigenvalues --    4.22962   4.30728   4.34583   4.45546   4.48098
 Alpha virt. eigenvalues --    4.49456   4.53628   4.67263  11.40250  21.96057
 Alpha virt. eigenvalues --   21.98421  22.00693  22.17323  22.18115  22.18920
 Alpha virt. eigenvalues --   22.20915  22.21641  22.22087  22.23454  22.24402
 Alpha virt. eigenvalues --   22.28114  22.30197  22.31766  22.32579  22.35449
 Alpha virt. eigenvalues --   31.97295  32.01120  32.02284  32.11292  32.14358
 Alpha virt. eigenvalues --   32.17205  43.36333  43.49769  43.62238  43.66256
 Alpha virt. eigenvalues --   43.69071  43.76086  43.84911
          Condensed to atoms (all electrons):
 Mulliken charges:
               1
     1  C   -0.472215
     2  H    0.159944
     3  C   -0.304234
     4  H    0.182397
     5  H    0.168790
     6  N   -0.397703
     7  C   -0.073437
     8  C    0.023172
     9  H    0.192460
    10  N   -0.229461
    11  H    0.357210
    12  C   -0.046494
    13  H    0.198694
    14  C   -0.484126
    15  H    0.159265
    16  C   -0.282049
    17  H    0.187009
    18  H    0.162141
    19  N   -0.327421
    20  C   -0.165020
    21  C    0.032781
    22  H    0.195465
    23  N   -0.205312
    24  H    0.320881
    25  C   -0.035889
    26  H    0.210654
    27  C   -0.400855
    28  H    0.190710
    29  C   -0.483836
    30  H    0.182241
    31  H    0.205749
    32  N   -0.348021
    33  C    0.024373
    34  C    0.054415
    35  H    0.183003
    36  N   -0.216477
    37  H    0.319224
    38  C   -0.037558
    39  H    0.198578
    40  C    0.370668
    41  O   -0.423258
    42  O   -0.355158
    43  Zn   1.390568
    44  O   -0.639235
    45  H    0.307239
    46  H    0.335641
    47  O   -0.913828
    48  H    0.329994
    49  H    0.354707
    50  O   -0.742050
    51  H    0.342814
    52  H    0.347926
    53  H    0.158192
    54  H    0.153221
    55  H    0.161288
    56  H    0.158488
    57  H    0.223087
    58  O   -0.688103
    59  H    0.360246
    60  H    0.332937
    61  O   -0.648014
    62  H    0.341820
    63  H    0.341767
 Sum of Mulliken charges =   1.00000
 Mulliken charges with hydrogens summed into heavy atoms:
               1
     1  C   -0.000858
     3  C    0.046953
     6  N   -0.397703
     7  C   -0.073437
     8  C    0.215632
    10  N    0.127749
    12  C    0.152200
    14  C   -0.005084
    16  C    0.067101
    19  N   -0.327421
    20  C   -0.165020
    21  C    0.228246
    23  N    0.115569
    25  C    0.174764
    27  C    0.012942
    29  C   -0.095847
    32  N   -0.348021
    33  C    0.024373
    34  C    0.237418
    36  N    0.102747
    38  C    0.161020
    40  C    0.370668
    41  O   -0.423258
    42  O   -0.012344
    43  Zn   1.390568
    44  O    0.003645
    47  O   -0.583834
    50  O   -0.039417
    58  O    0.005079
    61  O    0.035573
 Electronic spatial extent (au):  <R**2>=          15390.9308
 Charge=              1.0000 electrons
 Dipole moment (field-independent basis, Debye):
    X=             16.2649    Y=             -2.5879    Z=             -0.9070  Tot=             16.4944
 Quadrupole moment (field-independent basis, Debye-Ang):
   XX=           -113.5431   YY=           -120.9739   ZZ=           -152.7158
   XY=            -29.6630   XZ=            -27.9145   YZ=             21.2038
 Traceless Quadrupole moment (field-independent basis, Debye-Ang):
   XX=             15.5345   YY=              8.1037   ZZ=            -23.6382
   XY=            -29.6630   XZ=            -27.9145   YZ=             21.2038
 Octapole moment (field-independent basis, Debye-Ang**2):
  XXX=            818.7316  YYY=           -103.9048  ZZZ=            -73.3255  XYY=             60.6095
  XXY=           -146.8541  XXZ=           -261.0139  XZZ=            140.6329  YZZ=            -38.3101
  YYZ=             11.0338  XYZ=            -76.2822
 Hexadecapole moment (field-independent basis, Debye-Ang**3):
 XXXX=          -4387.7516 YYYY=          -5514.1141 ZZZZ=          -2451.0199 XXXY=          -1581.5611
 XXXZ=          -2154.5027 YYYX=           -529.0052 YYYZ=             45.9331 ZZZX=           -295.3755
 ZZZY=            129.6815 XXYY=          -2173.9149 XXZZ=          -1249.5073 YYZZ=          -1416.2135
 XXYZ=            973.6304 YYXZ=           -212.7677 ZZXY=           -233.3811
 N-N= 3.400340756088D+03 E-N=-1.048146540299D+04  KE= 1.592524786929D+03
   1 Symmetry operations used in ECPInt.
 ECPInt:  NShTT=   79800 NPrTT=  267559 LenC2=   63213 LenP2D=  137959.
 LDataN:  DoStor=T MaxTD1= 6 Len=  172
 D1PCM: PCM CHGder 1st derivatives, ID1Alg=3 FixD1E=F DoIter=F DoCFld=F I1PDM=0.
 Calling FoFJK, ICntrl=      2127 FMM=T ISym2X=0 I1Cent= 0 IOpClX= 0 NMat=1 NMatS=1 NMatT=0.
 ***** Axes restored to original set *****
 -------------------------------------------------------------------
 Center     Atomic                   Forces (Hartrees/Bohr)
 Number     Number              X              Y              Z
 -------------------------------------------------------------------
      1        6          -0.001455985   -0.000734729   -0.003786077
      2        1          -0.000965485    0.000342858    0.001156061
      3        6           0.000206670    0.000240320    0.000180338
      4        1          -0.000091562    0.000293328   -0.000185991
      5        1          -0.000226767   -0.000367661    0.000210835
      6        7          -0.001331288   -0.000632467   -0.001064155
      7        6           0.000930333   -0.000010882   -0.000795452
      8        6           0.002381792    0.001127101    0.002183845
      9        1          -0.000292666   -0.000305172   -0.000570315
     10        7          -0.003233147   -0.000654420   -0.000960095
     11        1           0.000894287    0.000030876   -0.000049727
     12        6           0.000202857    0.000395247    0.000917874
     13        1           0.000078283   -0.000048480    0.000020904
     14        6          -0.000490491   -0.002922993    0.002657610
     15        1          -0.000052157   -0.001138042   -0.001325185
     16        6           0.000937332   -0.002053869   -0.000063852
     17        1          -0.001689631    0.000304121   -0.000832596
     18        1           0.000046568    0.001349706    0.002106050
     19        7           0.000258802   -0.000569110    0.000041323
     20        6           0.000423501    0.001486175   -0.001133436
     21        6           0.000721184   -0.000403178   -0.000185425
     22        1          -0.000192961   -0.000320006    0.000182296
     23        7           0.000117580    0.002300016   -0.000799065
     24        1           0.000137656   -0.000086409   -0.000117417
     25        6           0.000202774   -0.003903384    0.000939793
     26        1          -0.000451799    0.001832967    0.000016501
     27        6           0.004722752    0.003019841    0.003665204
     28        1           0.000028903    0.000783067   -0.000640269
     29        6           0.000130865   -0.000526531    0.000502088
     30        1           0.000094452    0.000574735   -0.000466728
     31        1          -0.000135566    0.000009203   -0.000078510
     32        7           0.000724546   -0.001973670    0.000155513
     33        6           0.000365380    0.000962951    0.001087079
     34        6          -0.002230651    0.000653766   -0.002226183
     35        1           0.000882491    0.000754374    0.000861402
     36        7           0.000707911   -0.000888748    0.001097054
     37        1           0.000146339   -0.000074339    0.000049252
     38        6          -0.000945533    0.000288775   -0.001270728
     39        1           0.000170480    0.000240932    0.000123761
     40        6          -0.000194363    0.001263896   -0.000722428
     41        8           0.000114884   -0.000292394   -0.000024970
     42        8           0.000397431   -0.000289770   -0.000463646
     43       30          -0.000231857    0.000130391   -0.000258372
     44        8          -0.000233775    0.000206746   -0.000016688
     45        1           0.000037856   -0.000131440    0.000076140
     46        1           0.000184137   -0.000131954    0.000051296
     47        8          -0.000421744   -0.000245198    0.000486243
     48        1           0.000197087    0.000144217   -0.000229444
     49        1          -0.000298646   -0.000048449    0.000107450
     50        8           0.000538095    0.000394944    0.000736217
     51        1          -0.000244315    0.000005319    0.000690389
     52        1          -0.000211281   -0.000403230   -0.000710182
     53        1           0.000228863   -0.000356477    0.000046727
     54        1           0.000214340    0.000300738   -0.000264581
     55        1          -0.000768323   -0.000094522    0.000545888
     56        1           0.000449280   -0.000164975    0.000131903
     57        1          -0.001496559    0.000339009   -0.001750869
     58        8           0.000297840   -0.001135416    0.000073702
     59        1          -0.000423983    0.001036533    0.000148731
     60        1           0.000143129    0.000067468   -0.000261753
     61        8          -0.000707784    0.000147585   -0.000021136
     62        1           0.000574661   -0.000138786   -0.000036822
     63        1           0.000126978    0.000019495    0.000062629
 -------------------------------------------------------------------
 Cartesian Forces:  Max     0.004722752 RMS     0.001036450

 GradGradGradGradGradGradGradGradGradGradGradGradGradGradGradGradGradGrad
 Berny optimization.
 FormGI is forming the generalized inverse of G from B-inverse, IUseBI=4.
 Internal  Forces:  Max     0.004661294 RMS     0.000622949
 Search for a local minimum.
 Step number   1 out of a maximum of  347
 All quantities printed in internal units (Hartrees-Bohrs-Radians)
 Mixed Optimization -- En-DIIS/RFO-DIIS
 Second derivative matrix not updated -- first step.
 ITU=  0
     Eigenvalues ---    0.00230   0.00230   0.00230   0.00230   0.00230
[...]
 00035997,0.00046172,0.00066643,0.59947900,0.00001784,-0.00000371,-0.00
 000195,-0.00000147,-0.00000211,-0.00000943,0.00001466,0.00000331,0.000
 02318,0.00000873,-0.00000757,-0.00001702,0.00001089,-0.00000045,-0.000
 01587,0.00036106,-0.00003696,-0.00019136,0.00014127,0.00001024,-0.0000
 2602,-0.00042598,-0.00009933,-0.00020823,0.00000648,-0.00000002,0.0000
 0887,0.00111275,0.00000595,-0.00056446,-0.00240791,-0.00005440,0.00135
 700,0.00006274,0.00011464,0.00032536,-0.00001025,-0.00000453,-0.000004
 06,0.00000207,0.00000098,0.00000073,-0.00000024,-0.00000059,-0.0000002
 9,-0.00000329,-0.00000243,-0.00000192,0.00000199,0.00000545,0.00000028
 ,-0.00000090,0.00000002,-0.00000134,0.00002164,-0.00000097,-0.00000184
 ,-0.00000390,0.00000737,0.00000067,-0.00000844,-0.00000110,0.00000765,
 0.00000062,-0.00000051,0.00000011,0.00000813,-0.00000655,-0.00000667,-
 0.00000156,-0.00000053,0.00000049,0.00000168,-0.00000209,-0.00000030,-
 0.00000007,-0.00000009,-0.00000033,-0.00000047,0.00000067,0.00000060,0
 .00000026,0.00000006,-0.00000008,0.00000034,-0.00000003,-0.00000009,-0
 .00000012,-0.00000102,-0.00000055,0.00000074,0.00000056,0.00000052,0.0
 0001219,0.00002015,-0.00000087,-0.00000414,-0.00000152,-0.00000702,0.0
 0000300,-0.00001585,0.00000374,-0.00000170,-0.00001077,0.00000449,-0.0
 0000362,0.00001014,-0.00000232,0.00000402,-0.00000133,-0.00000064,0.00
 000302,0.00000917,0.00000442,0.00000057,0.00000065,-0.00000055,-0.0000
 0072,-0.00000608,0.00000229,0.00000026,0.00000206,-0.00000188,0.000001
 38,0.00000529,-0.00000240,-0.00011278,-0.00003462,-0.00002380,0.000001
 99,0.00000072,0.00000067,-0.00000139,-0.00000010,-0.00000111,-0.000000
 96,-0.00000075,0.00000003,0.00002457,0.00000922,0.00001574,-0.00000544
 ,0.00000047,-0.00000493,-0.00001743,-0.00000247,-0.00000114,0.00001135
 ,0.00000356,-0.00000129,-0.00000153,-0.00000193,0.00000303,-0.00000004
 ,-0.00000087,-0.00000019,-0.00000380,-0.00000002,0.00000146,-0.0000028
 8,0.00000321,0.00000225,-0.00000027,0.00000046,-0.00000051,0.00000108,
 -0.00000146,0.00000060,0.00000007,-0.00000014,-0.00000012,0.00944675,-
 0.01655785,-0.00369939,-0.00505081,0.00114578,0.00282167,0.00071996,0.
 00001899,-0.00109046,-0.02513111,0.19061001,0.00000188,0.00000138,-0.0
 0000120,0.00000044,-0.00000071,-0.00000164,0.00000300,0.00000078,0.000
 00369,0.00000225,-0.00000174,-0.00000264,0.00000135,0.00000018,-0.0000
 0274,0.00006145,-0.00000530,-0.00002488,0.00002013,0.00000129,-0.00000
 154,-0.00007207,-0.00001869,-0.00003472,0.00000291,0.00000132,-0.00000
 056,0.00016996,-0.00000256,-0.00011027,-0.00036057,0.00000386,0.000226
 01,0.00001080,0.00001841,0.00005435,-0.00000166,0.00000455,-0.00000029
 ,0.00000058,0.00000029,0.00000013,-0.00000013,0.00000021,0.00000036,-0
 .00000050,-0.00000115,-0.00000103,0.00000026,0.00000102,-0.00000061,0.
 00000011,0.00000078,0.00000034,0.00000378,-0.00000045,0.00000115,0.000
 00071,0.00000221,-0.00000068,-0.00000182,-0.00000013,0.00000168,-0.000
 00024,0.00000010,-0.00000025,0.00000067,-0.00000142,-0.00000014,-0.000
 00041,-0.00000011,-0.00000041,0.00000051,-0.00000058,0.00000014,-0.000
 00005,-0.00000010,-0.00000041,0.00000014,-0.00000021,0.00000106,-0.000
 00024,-0.00000013,-0.00000009,-0.00000041,0.00000043,-0.00000087,0.000
 00055,-0.00000038,-0.00000031,0.00000047,0.00000068,0.00000030,0.00000
 468,0.00000067,0.00000358,-0.00000130,0.00000149,-0.00000162,-0.000002
 32,0.00000077,-0.00000298,-0.00000163,-0.00000083,0.00000149,0.0000038
 8,-0.00000191,0.00000164,-0.00000313,-0.00000063,0.00000007,-0.0000005
 1,0.00000024,0.00000002,-0.00000026,0.00000015,-0.00000014,-0.00000043
 ,0.00000185,-0.00000311,0.00000030,-0.00000064,0.00000246,0.00000042,-
 0.00000205,0.00000267,-0.00002129,-0.00000217,-0.00001310,-0.00000050,
 0.,0.00000195,-0.00000019,-0.00000019,-0.00000139,0.00000045,0.0000000
 7,-0.00000107,0.00000102,0.00000043,0.00000921,0.00000080,-0.00000106,
 -0.00000243,-0.00000011,0.00000045,-0.00000114,-0.00000035,-0.00000106
 ,0.00000274,0.00000019,0.00000118,-0.00000310,0.00000044,0.00000030,-0
 .00000066,-0.00000065,-0.00000112,0.00000131,-0.00000085,0.00000055,0.
 00000036,-0.00000035,-0.00000054,-0.00000007,0.00000028,-0.00000036,-0
 .00000005,0.00000066,-0.00000009,-0.00000007,0.00235754,-0.00432164,0.
 00249568,-0.00356256,0.00166438,-0.00515468,0.00064759,-0.00082189,-0.
 00038053,0.15191394,0.24203015,0.39649190,0.00000122,0.00000019,-0.000
 00044,0.,-0.00000027,-0.00000078,0.00000063,0.00000039,0.00000176,0.00
 000081,-0.00000069,-0.00000122,0.00000059,0.00000018,-0.00000109,0.000
 02241,-0.00000380,-0.00001203,0.00000712,0.00000055,-0.00000122,-0.000
 02738,-0.00000485,-0.00001136,-0.00000024,0.00000111,0.00000005,0.0000
 6646,-0.00000510,-0.00003394,-0.00014376,0.00001255,0.00008524,0.00000
 389,0.00000667,0.00002017,-0.00000052,0.00000074,-0.00000032,0.0000001
 6,0.00000009,0.,0.00000003,-0.00000012,-0.00000011,-0.00000023,-0.0000
 0011,0.00000004,0.00000019,0.00000053,0.00000005,-0.00000015,-0.000000
 01,-0.00000023,0.00000196,-0.00000065,-0.00000050,-0.00000024,0.000000
 82,-0.00000013,-0.00000117,0.00000011,0.00000092,0.,0.00000004,0.00000
 003,0.00000096,-0.00000082,-0.00000070,-0.00000017,0.00000002,0.000000
 09,0.00000012,-0.00000034,0.,0.00000003,0.,-0.00000002,0.00000011,-0.0
 0000031,-0.00000005,0.00000002,0.00000005,-0.00000010,-0.00000034,0.00
 000008,-0.00000018,-0.00000017,0.00000012,0.00000004,-0.00000005,-0.00
 000018,0.00000005,0.00000240,0.00000010,-0.00000065,-0.00000050,0.0000
 0012,-0.00000077,-0.00000023,-0.00000003,0.00000030,-0.00000060,-0.000
 00035,0.00000084,0.00000121,-0.00000021,-0.00000041,-0.00000100,-0.000
 00015,0.00000094,0.00000033,-0.00000008,-0.00000003,-0.00000045,-0.000
 00002,0.00000031,-0.00000063,0.00000066,0.00000130,0.00000039,-0.00000
 023,-0.00000094,0.00000081,-0.00000021,-0.00000036,-0.00001099,0.00000
 167,-0.00000053,0.00000035,-0.00000038,-0.00000013,-0.00000015,0.00000
 016,0.,-0.00000033,0.00000044,0.00000019,0.00000407,-0.00000148,0.0000
 0071,-0.00000075,0.00000076,-0.00000014,-0.00000334,-0.00000004,-0.000
 00018,0.00000251,-0.00000031,-0.00000016,-0.00000047,0.00000011,0.0000
 0036,-0.00000027,0.00000009,-0.00000003,-0.00000016,-0.00000008,0.0000
 0039,-0.00000028,0.00000007,0.00000025,0.,0.00000008,0.00000004,0.0000
 0006,-0.00000012,0.00000007,0.00000017,-0.00000002,0.00000005,0.000703
 24,-0.00116475,-0.00042706,-0.00166288,0.00210609,0.00066806,-0.000010
 91,0.00010712,0.00000485,-0.51742661,0.06058223,-0.06626674,0.53046886
 ,0.00000124,0.00000021,-0.00000034,-0.00000016,-0.00000013,-0.00000063
 ,0.00000078,0.00000099,0.00000128,0.00000083,-0.00000056,-0.00000105,0
 .00000048,-0.00000025,-0.00000107,0.00002283,-0.00000300,-0.00001319,0
 .00000947,0.00000018,-0.00000154,-0.00002977,-0.00000945,-0.00001189,-
 0.00000003,0.00000145,-0.00000017,0.00006880,0.00000073,-0.00003259,-0
 .00015709,0.00000629,0.00007762,0.00000416,0.00000641,0.00002301,-0.00
 000030,0.00000053,-0.00000089,0.00000021,0.00000013,-0.00000001,0.0000
 0012,-0.00000011,-0.00000006,-0.00000003,-0.00000023,0.00000004,0.0000
 0008,0.00000062,-0.00000016,-0.00000016,0.00000012,-0.00000008,0.00000
 137,-0.00000076,-0.00000024,0.00000022,0.00000094,-0.00000053,-0.00000
 093,0.00000004,0.00000087,-0.00000003,0.00000008,0.00000002,0.00000035
 ,-0.00000082,-0.00000032,-0.00000001,0.00000002,0.00000003,0.00000010,
 -0.00000034,-0.00000016,0.00000012,-0.00000002,-0.00000001,0.00000016,
 -0.00000025,0.,-0.00000004,0.00000002,-0.00000006,-0.00000028,0.000000
 09,-0.00000018,-0.00000005,0.00000007,-0.00000001,0.,-0.00000002,0.000
 00001,0.00000186,-0.00000051,0.00000010,-0.00000029,0.00000022,-0.0000
 0062,-0.00000028,0.00000038,-0.00000029,-0.00000039,-0.00000019,0.0000
 0068,0.00000137,-0.00000041,0.00000007,-0.00000095,0.00000022,0.000000
 63,-0.00000003,-0.00000007,-0.00000031,-0.00000040,0.00000005,0.000000
 23,-0.00000040,0.00000134,0.00000045,0.00000023,-0.00000048,-0.0000002
 8,0.00000040,-0.00000091,0.00000022,-0.00000732,0.00000132,-0.00000175
 ,-0.00000006,-0.00000049,0.00000013,0.00000003,0.00000013,-0.00000014,
 0.,0.00000055,0.,0.00000197,-0.00000153,0.00000139,-0.00000016,0.00000
 050,-0.00000033,-0.00000137,0.00000037,-0.00000017,0.00000108,-0.00000
 075,0.00000030,-0.00000020,0.00000039,-0.00000030,-0.00000009,0.000000
 23,-0.00000011,0.,0.00000004,0.00000022,-0.00000032,-0.00000019,0.0000
 0020,-0.00000005,-0.00000011,0.00000020,-0.00000008,-0.00000012,-0.000
 00003,0.00000017,0.,0.00000003,-0.00002069,-0.00234441,-0.00057734,0.0
 0239523,0.00337457,0.00120691,0.00012574,-0.00017887,-0.00010408,0.089
 26036,-0.03009525,-0.01112063,-0.06695772,0.02660021,0.00000178,-0.000
 00083,0.,-0.00000036,-0.00000008,-0.00000070,0.00000084,0.00000043,0.0
 0000198,0.00000044,-0.00000043,-0.00000138,0.00000086,-0.00000009,-0.0
 0000115,0.00002396,-0.00000382,-0.00001641,0.00001088,0.00000192,-0.00
 000265,-0.00003292,-0.00000652,-0.00001310,-0.00000021,0.,0.00000069,0
 .00006976,-0.00001009,-0.00003350,-0.00017532,0.00004149,0.00009999,0.
 00000465,0.00000843,0.00002425,-0.00000012,-0.00000178,-0.00000076,0.0
 0000012,0.00000007,0.00000005,0.00000006,-0.00000018,-0.00000018,-0.00
 000019,0.00000003,0.00000021,0.00000013,0.00000047,0.00000017,-0.00000
 010,-0.00000020,-0.00000031,0.00000162,-0.00000029,-0.00000067,-0.0000
 0063,0.00000046,0.00000012,-0.00000075,-0.00000003,0.00000058,0.000000
 19,-0.00000003,0.00000015,0.00000083,-0.00000053,-0.00000082,-0.000000
 02,-0.00000002,0.00000025,0.00000005,-0.00000017,-0.00000011,0.0000000
 5,0.00000001,0.00000011,-0.00000005,-0.00000002,-0.00000032,0.00000010
 ,0.00000007,0.,-0.00000001,-0.00000008,0.00000017,-0.00000024,0.000000
 08,0.00000005,-0.00000010,-0.00000023,-0.00000003,0.00000063,0.0000014
 1,-0.00000162,-0.00000031,-0.00000050,-0.00000051,0.00000082,-0.000001
 63,0.00000171,0.00000004,-0.00000085,0.00000047,-0.00000090,0.00000123
 ,-0.00000105,0.00000095,0.00000002,0.00000065,0.00000063,0.00000068,0.
 00000043,-0.00000010,0.,0.00000018,-0.00000024,-0.00000085,0.00000196,
 0.00000009,0.00000027,-0.00000151,0.00000021,0.00000101,-0.00000128,-0
 .00000961,-0.00000064,0.00000141,0.00000040,-0.00000010,-0.00000062,-0
 .00000008,0.00000014,0.00000038,-0.00000038,0.00000010,0.00000040,0.00
 000324,-0.00000014,-0.00000087,-0.00000081,0.00000060,0.00000015,-0.00
 000260,-0.00000043,0.00000012,0.00000186,0.00000043,-0.00000100,-0.000
 00037,-0.00000049,0.00000136,-0.00000019,-0.00000010,0.00000016,-0.000
 00014,0.00000055,-0.00000017,-0.00000011,0.00000003,0.00000025,0.00000
 009,0.00000019,0.00000003,-0.00000003,-0.00000008,0.00000008,-0.000000
 12,0.,0.00000003,0.00029918,-0.00117294,0.00003546,-0.00011806,0.00248
 004,0.00016088,0.00000768,-0.00008848,-0.00012042,-0.02176889,-0.02064
 823,-0.03379320,0.06121055,0.01402087,0.03780441,-0.00000089,0.0000001
 5,-0.00000013,0.00000003,0.00000006,0.00000042,-0.00000229,0.,-0.00000
 166,-0.00000061,0.00000046,0.00000122,-0.00000082,0.00000035,0.0000013
 4,-0.00003590,0.00000028,0.00001674,-0.00001594,-0.00000143,0.00000126
 ,0.00004095,0.00001107,0.00002648,-0.00000305,0.00000307,-0.00000187,-
 0.00010425,0.00000278,0.00005690,0.00025212,-0.00001319,-0.00013328,-0
 .00000346,-0.00001154,-0.00003514,0.00000134,0.00000022,-0.00000022,-0
 .00000017,-0.00000006,-0.00000025,0.00000011,-0.00000024,-0.00000026,0
 .00000017,0.00000054,0.00000070,0.,-0.00000021,0.00000031,-0.00000031,
 -0.00000026,-0.00000034,-0.00000075,-0.00000107,-0.00000136,-0.0000000
 8,-0.00000025,-0.00000005,-0.00000041,0.00000035,0.00000016,-0.0000000
 5,0.00000011,0.00000010,0.00000049,-0.00000017,-0.00000038,0.00000001,
 0.00000012,0.00000022,-0.00000015,-0.00000019,-0.00000004,0.00000007,0
 .00000004,0.00000013,0.00000013,-0.00000070,-0.00000061,0.00000016,0.0
 0000015,-0.00000020,-0.00000051,0.,-0.00000012,-0.00000077,0.00000063,
 0.00000028,-0.00000053,-0.00000081,-0.00000005,0.00000157,-0.00000271,
 -0.00000356,-0.00000019,-0.00000044,-0.00000010,0.00000069,0.00000161,
 0.00000187,-0.00000041,0.00000130,0.00000065,0.00000124,-0.00000079,-0
 .00000162,-0.00000114,-0.00000015,0.00000215,0.00000069,-0.00000179,-0
 .00000046,-0.00000090,-0.00000022,0.00000079,-0.00000104,0.00000137,0.
 00000369,0.00000071,-0.00000040,-0.00000273,0.00000148,-0.00000020,-0.
 00000141,0.00000369,0.00000958,0.00000867,0.00000060,-0.00000093,-0.00
 000097,-0.00000003,0.00000035,0.00000055,-0.00000065,0.00000109,0.0000
 0075,0.00000581,-0.00000554,-0.00000450,-0.00000143,0.00000234,0.00000
 130,-0.00000536,0.00000025,0.00000010,0.00000449,-0.00000079,-0.000001
 10,-0.00000094,0.00000009,0.00000150,-0.00000078,0.00000025,0.00000016
 ,0.00000042,0.00000026,0.00000004,0.00000014,-0.00000044,-0.00000005,0
 .00000010,0.00000027,0.00000016,-0.00000008,0.00000009,0.00000008,0.00
 000015,0.,0.00000017,-0.00102362,0.00200788,-0.00021871,0.00217440,-0.
 00331255,0.00113600,-0.00015871,0.00013105,0.00010712,-0.07622706,-0.0
 3938309,-0.08491287,-0.01199616,-0.02472006,-0.03952878,0.08709763,0.0
 0000014,0.00000031,-0.00000001,0.,0.,-0.00000010,0.00000069,0.00000031
 ,0.00000021,0.00000041,-0.00000021,-0.00000034,-0.00000004,-0.00000018
 ,-0.00000022,0.00000965,-0.00000206,-0.00000368,0.00000509,-0.00000053
 ,0.00000018,-0.00001046,-0.00000257,-0.00001093,0.00000203,0.00000053,
 -0.00000067,0.00003253,0.00000437,-0.00002141,-0.00006038,-0.00002225,
 0.00004600,0.00000252,0.00000430,0.00000952,-0.00000038,0.00000054,-0.
 00000031,0.00000016,0.00000011,0.,0.00000003,0.00000008,0.00000015,0.0
 0000014,-0.00000038,-0.00000020,-0.00000009,0.00000021,-0.00000041,0.0
 0000019,0.00000041,0.00000024,0.00000006,-0.00000035,0.00000051,0.0000
 0071,0.00000065,-0.00000062,-0.00000027,0.00000001,0.00000024,-0.00000
 005,0.00000010,0.,-0.00000048,-0.00000033,0.00000045,0.00000007,0.,-0.
 00000012,0.00000008,-0.00000012,-0.00000005,0.00000007,-0.00000004,-0.
 00000009,0.00000020,-0.00000025,0.00000008,-0.00000013,0.,0.,-0.000000
 31,0.00000020,-0.00000018,0.00000017,0.00000003,-0.00000006,0.,0.00000
 012,-0.00000004,0.00000082,-0.00000140,0.00000104,-0.00000005,0.000000
 58,-0.00000026,-0.00000091,0.00000126,-0.00000084,-0.00000014,0.000000
 18,0.00000018,0.00000173,-0.00000113,0.00000070,-0.00000100,0.00000040
 ,0.00000048,-0.00000033,-0.00000048,-0.00000067,-0.00000041,0.00000002
 ,0.00000025,-0.00000012,0.00000184,-0.00000054,0.00000006,-0.00000066,
 0.00000050,-0.00000006,-0.00000159,0.00000095,-0.00000141,0.00000239,-
 0.00000335,-0.00000051,-0.00000030,0.00000061,0.00000015,0.,-0.0000003
 9,0.00000028,0.00000036,-0.00000035,-0.00000189,-0.00000146,0.00000228
 ,0.00000116,-0.00000029,-0.00000064,0.00000183,0.00000058,-0.00000021,
 -0.00000137,-0.00000115,0.00000101,0.00000023,0.00000071,-0.00000126,0
 .00000017,0.00000035,-0.00000022,0.00000007,-0.00000008,0.00000011,-0.
 00000019,-0.00000014,0.,-0.00000013,-0.00000036,0.00000013,-0.00000009
 ,-0.00000004,-0.00000009,0.00000018,0.00000002,0.00000002,0.00094712,-
 0.00098687,0.00058752,-0.00199848,0.00029758,-0.00265506,0.00011755,-0
 .00026355,-0.00010340,-0.06964817,-0.14503310,-0.22742968,0.00531948,0
 .00264080,0.00537981,0.06528205,0.14336253,-0.00000076,-0.00000044,0.0
 0000040,-0.00000008,0.00000024,0.00000061,-0.00000075,-0.00000049,-0.0
 0000122,-0.00000079,0.00000064,0.00000094,-0.00000031,-0.00000015,0.00
 000087,-0.00001967,0.00000371,0.00000824,-0.00000614,-0.00000008,0.000
 00053,0.00002362,0.00000448,0.00001247,-0.00000031,-0.00000163,0.00000
 129,-0.00006150,0.00000140,0.00003140,0.00012240,0.00000034,-0.0000754
 8,-0.00000336,-0.00000589,-0.00001772,0.00000061,-0.00000119,0.0000002
 8,-0.00000024,-0.00000014,-0.00000004,0.00000003,-0.00000006,-0.000000
 14,0.00000014,0.00000048,0.00000034,-0.00000010,-0.00000043,0.00000024
 ,-0.00000005,-0.00000038,-0.00000010,-0.00000146,0.00000050,-0.0000003
 2,-0.00000038,-0.00000103,0.00000038,0.00000091,-0.00000001,-0.0000007
 7,0.00000009,-0.00000010,0.00000008,-0.00000029,0.00000065,0.00000007,
 0.00000014,0.00000003,0.00000014,-0.00000020,0.00000032,-0.00000006,-0
 .00000001,0.00000005,0.00000015,-0.00000010,0.00000027,-0.00000037,0.0
 0000009,0.00000003,0.00000007,0.00000035,-0.00000024,0.00000047,-0.000
 00010,0.00000006,0.00000012,-0.00000008,-0.00000017,-0.00000009,-0.000
 00252,0.00000084,-0.00000080,0.00000079,-0.00000066,0.00000097,0.00000
 092,-0.00000130,0.00000064,0.00000072,-0.00000003,-0.00000088,-0.00000
 247,0.00000142,-0.00000040,0.00000179,0.00000012,-0.00000091,0.0000001
 9,0.00000052,0.00000026,0.00000047,0.00000002,-0.00000017,0.00000048,-
 0.00000139,0.00000064,-0.00000031,0.00000049,-0.00000056,-0.00000043,0
 .00000122,-0.00000106,0.00000905,-0.00000235,0.00000429,0.00000019,0.0
 0000019,-0.00000078,0.00000006,0.00000001,0.00000054,-0.00000008,-0.00
 000027,0.00000042,-0.00000147,0.00000128,-0.00000382,-0.00000024,0.000
 00015,0.00000104,0.00000091,-0.00000024,0.00000063,-0.00000051,0.00000
 082,-0.00000128,0.00000005,-0.00000067,0.00000137,-0.00000012,-0.00000
 025,0.00000034,0.00000007,0.00000024,-0.00000048,0.00000031,-0.0000000
 2,-0.00000015,0.00000014,0.00000024,0.,-0.00000008,0.00000014,0.000000
 04,-0.00000039,0.00000006,0.00000002,-0.00087008,0.00119170,0.00032450
 ,0.00131092,-0.00181376,-0.00052837,0.00003818,-0.00004121,0.00002462,
 -0.12878389,-0.22007731,-0.35975969,0.00476487,-0.00346399,-0.00414496
 ,0.12348078,0.22420322,0.36412124\\0.00219472,0.00036573,0.00305677,0.
 00000498,-0.00000197,-0.00001084,-0.00000872,-0.00000037,0.00000840,0.
 00000748,-0.00000220,0.00000514,0.00000087,0.00000329,-0.00000552,-0.0
 0007995,-0.00001278,0.00002249,0.00002212,-0.00001124,-0.00000332,0.00
 006912,0.00000165,-0.00001842,-0.00000310,-0.00000308,0.00000548,-0.00
 003396,-0.00000817,-0.00007196,-0.00000547,-0.00002160,0.00000488,-0.0
 0000301,0.00001306,0.00004031,-0.00000431,-0.00000007,-0.00000275,0.00
 079435,0.00451447,-0.00224744,0.00000141,0.00000276,0.00001028,-0.0000
 0927,-0.00002787,0.00003146,0.00001543,0.00000002,0.00000165,0.0000033
 0,-0.00000085,-0.00003747,0.00000353,-0.00004482,0.00000403,0.00000455
 ,0.00004631,-0.00000499,0.00001393,-0.00005250,0.00001433,0.00000008,-
 0.00000010,-0.00001150,0.00000921,0.00006374,-0.00002641,-0.00000053,-
 0.00000473,-0.00000057,-0.00002221,-0.00000427,0.00002066,0.00000060,-
 0.00002064,0.00000399,-0.00294221,-0.00484866,-0.00077457,-0.00001260,
 0.00000533,-0.00000320,-0.00000471,-0.00000628,-0.00001171,0.00000161,
 0.00000263,-0.00000212,-0.00000096,-0.00000290,-0.00000005,-0.00000300
 ,-0.00002885,0.00000117,-0.00000487,0.00002952,0.00002657,-0.00001154,
 0.00007673,-0.00001246,-0.00000438,-0.00001757,-0.00000581,0.00002320,
 -0.00002705,0.00002882,-0.00000396,0.00000363,-0.00000520,-0.00002752,
 -0.00001695,-0.00003401,0.00000073,-0.00000473,0.00000677,-0.00004096,
 0.00001067,-0.00005024,0.00001700,-0.00000263,0.00002881,0.00001398,-0
 .00001353,-0.00003700,0.00001785,0.00004391,-0.00001554,-0.00000024,-0
 .00000137,0.00000605,-0.00000292,0.00000324,0.00000171,-0.00000060,0.0
 0000656,-0.00001354,0.00002020,-0.00002953,0.00005629,-0.00000840,0.00
 001620,-0.00000643,0.00000361,0.00000196,-0.00001471,-0.00000289,-0.00
 001009,0.00000504,0.00001448,-0.00000517,0.00004443,-0.00000454,0.0000
 1751,0.00000943,-0.00000781,0.00000401,-0.00000248,-0.00000398,-0.0000
 0264,0.00000722,0.00000288,-0.00000380,-0.00001014,-0.00000165,-0.0000
 0857,-0.00000927,-0.00000231,0.00000625,-0.00000322,0.00000600,0.00001
 841,-0.00000585,0.00000083,-0.00001086,0.00001073,-0.00000489,0.000000
 64,-0.00000023,-0.00000440,0.00000904,0.00000418,0.00000048,-0.0000034
 4,-0.00000299,0.00000331,-0.00000540,-0.00000518\\\@


 A HARD FALL SHOULD MEAN A HIGH BOUNCE 
 IF ONE IS MADE OF THE RIGHT MATERIAL.

                -- THE CHEMIST ANALYST, MARCH 1950
 Job cpu time:       1 days  0 hours 46 minutes 48.4 seconds.
 Elapsed time:       0 days  1 hours  2 minutes  5.9 seconds.
 File lengths (MBytes):  RWF=   4784 Int=      0 D2E=      0 Chk=     96 Scr=     32
 Normal termination of Gaussian 16 at Sun Sep 15 14:45:05 2024.
