 Entering Gaussian System, Link 0=g16
 Initial command:
 /opt/g16/l1.exe "/tmp/Gau-41072.inp" -scrdir="/tmp/"
 Entering Link 1 = /opt/g16/l1.exe PID=     41074.
  
 Copyright (c) 1988,1990,1992,1993,1995,1998,2003,2009,2016,
            Gaussian, Inc.  All Rights Reserved.
  
 This is part of the Gaussian(R) 16 program.  It is based on
 the Gaussian(R) 09 system (copyright 2009, Gaussian, Inc.),
 the Gaussian(R) 03 system (copyright 2003, Gaussian, Inc.),
 the Gaussian(R) 98 system (copyright 1998, Gaussian, Inc.),
 the Gaussian(R) 94 system (copyright 1995, Gaussian, Inc.),
 the Gaussian 92(TM) system (copyright 1992, Gaussian, Inc.),
 the Gaussian 90(TM) system (copyright 1990, Gaussian, Inc.),
 the Gaussian 88(TM) system (copyright 1988, Gaussian, Inc.),
 the Gaussian 86(TM) system (copyright 1986, Carnegie Mellon
 University), and the Gaussian 82(TM) system (copyright 1983,
 Carnegie Mellon University). Gaussian is a federally registered
 trademark of Gaussian, Inc.
  
 This software contains proprietary and confidential information,
 including trade secrets, belonging to Gaussian, Inc.
  
 This software is provided under written license and may be
 used, copied, transmitted, or stored only in accord with that
 written license.
  
 The following legend is applicable only to US Government
 contracts under FAR:
  
                    RESTRICTED RIGHTS LEGEND
  
 Use, reproduction and disclosure by the US Government is
 subject to restrictions as set forth in subparagraphs (a)
 and (c) of the Commercial Computer Software - Restricted
 Rights clause in FAR 52.227-19.
  
 Gaussian, Inc.
 340 Quinnipiac St., Bldg. 40, Wallingford CT 06492
  
  
 ---------------------------------------------------------------
 Warning -- This program may not be used in any manner that
 competes with the business of Gaussian, Inc. or will provide
 assistance to any competitor of Gaussian, Inc.  The licensee
 of this program is prohibited from giving any competitor of
 Gaussian, Inc. access to this program.  By using this program,
 the user acknowledges that Gaussian, Inc. is engaged in the
 business of creating and licensing software in the field of
 computational chemistry and represents and warrants to the
 licensee that it is not a competitor of Gaussian, Inc. and that
 it will not use this program in any manner prohibited above.
 ---------------------------------------------------------------
  

 Cite this work as:
 Gaussian 16, Revision A.03,
 M. J. Frisch, G. W. Trucks, H. B. Schlegel, G. E. Scuseria, 
 M. A. Robb, J. R. Cheeseman, G. Scalmani, V. Barone, 
 G. A. Petersson, H. Nakatsuji, X. Li, M. Caricato, A. V. Marenich, 
 J. Bloino, B. G. Janesko, R. Gomperts, B. Mennucci, H. P. Hratchian, 
 J. V. Ortiz, A. F. Izmaylov, J. L. Sonnenberg, D. Williams-Young, 
 F. Ding, F. Lipparini, F. Egidi, J. Goings, B. Peng, A. Petrone, 
 T. Henderson, D. Ranasinghe, V. G. Zakrzewski, J. Gao, N. Rega, 
 G. Zheng, W. Liang, M. Hada, M. Ehara, K. Toyota, R. Fukuda, 
 J. Hasegawa, M. Ishida, T. Nakajima, Y. Honda, O. Kitao, H. Nakai, 
 T. Vreven, K. Throssell, J. A. Montgomery, Jr., J. E. Peralta, 
 F. Ogliaro, M. J. Bearpark, J. J. Heyd, E. N. Brothers, K. N. Kudin, 
 V. N. Staroverov, T. A. Keith, R. Kobayashi, J. Normand, 
 K. Raghavachari, A. P. Rendell, J. C. Burant, S. S. Iyengar, 
 J. Tomasi, M. Cossi, J. M. Millam, M. Klene, C. Adamo, R. Cammi, 
 J. W. Ochterski, R. L. Martin, K. Morokuma, O. Farkas, 
 J. B. Foresman, and D. J. Fox, Gaussian, Inc., Wallingford CT, 2016.
 
 ******************************************
 Gaussian 16:  ES64L-G16RevA.03 25-Dec-2016
                 9-Aug-2024 
 ******************************************
 %chk=10_opt_sp.chk
 %mem=64GB
 %nprocshared=24
 Will use up to   24 processors via shared memory.
 ----------------------------------------------------
 # opt=(modredundant,recalc=6) freq genecp scrf m062x
 ----------------------------------------------------
 1/10=4,18=120,19=15,26=3,38=1,71=6/1,3;
 2/9=110,12=2,17=6,18=5,40=1/2;
 3/5=7,11=2,16=1,17=8,25=1,30=1,70=2201,71=2,74=-55,140=1/1,2,3;
 4//1;
 5/5=2,38=5/2;
 8/6=4,10=90,11=11/1;
 11/6=1,8=1,9=11,15=111,16=1/1,2,10;
 10/6=1/2;
 6/7=2,8=2,9=2,10=2,28=1/1;
 7/10=1,25=1/1,2,3,16;
 1/10=4,18=20,19=15,26=3,71=6/3(3);
 2/9=110/2;
 7/9=1,25=1,44=-1/16;
 99//99;
 2/9=110/2;
 3/5=7,6=1,11=2,16=1,17=8,25=1,30=1,70=2205,71=2,74=-55,82=7,140=1/1,2,3;
 4/5=5,16=3,69=1/1;
 5/5=2,38=5/2;
 8/6=4,10=90,11=11/1;
 11/6=1,8=1,9=11,15=111,16=1/1,2,10;
 10/6=1/2;
 7/10=1,25=1/1,2,3,16;
 1/18=20,19=15,26=3,71=6/3(-8);
 2/9=110/2;
 6/7=2,8=2,9=2,10=2,19=2,28=1/1;
 7/9=1,25=1,44=-1/16;
 99/9=1/99;
 -------------------
 Title Card Required
 -------------------
 Symbolic Z-matrix:
 Charge =  1 Multiplicity = 1
 C                     2.83436   5.19739   1.43583 
 H                     3.55354   5.32951   2.24332 
 C                     2.27931   3.77316   1.44204 
 H                     1.79985   3.56619   2.40369 
 H                     3.09337   3.05077   1.3542 
 N                     1.08418   2.27714  -0.20768 
 C                     1.2939    3.52686   0.3439 
 C                     0.11625   2.41091  -1.10301 
 H                    -0.3027    1.61571  -1.70108 
 N                    -0.29842   3.67818  -1.15838 
 H                    -1.03896   3.99762  -1.79635 
 C                     0.43487   4.40534  -0.2549 
 H                     0.28484   5.46111  -0.11651 
 C                    -2.66735   1.62299   2.67352 
 H                    -2.49961   2.1989    3.58516 
 C                    -1.35221   1.39395   1.91971 
 H                    -0.93969   2.35544   1.59832 
 H                    -1.53807   0.81453   1.00936 
 N                     0.88379   0.20831   2.24259 
 C                    -0.32958   0.6707    2.73964 
 C                     1.51025  -0.38749   3.2431 
 H                     2.46905  -0.87448   3.18272 
 N                     0.7682   -0.33178   4.35257 
 H                     1.02423  -0.719     5.2486 
 C                    -0.4004    0.33077   4.05734 
 H                    -1.16511   0.49316   4.79508 
 C                     4.24594  -3.43983  -0.1095 
 H                     5.32085  -3.55856  -0.22186 
 C                     3.68365  -2.48148  -1.17825 
 H                     2.59995  -2.41278  -1.08204 
 H                     3.88446  -2.90382  -2.16308 
 N                     3.6555   -0.02076  -0.50758 
 C                     4.2773   -1.11137  -1.09897 
 C                     4.48965   1.00036  -0.62829 
 H                     4.3115    2.00789  -0.29204 
 N                     5.6059    0.62004  -1.25549 
 H                     6.38944   1.21936  -1.47189 
 C                     5.49366  -0.70986  -1.56491 
 H                     6.26707  -1.2486   -2.08301 
 C                     3.96951  -2.8643    1.26064 
 O                     4.82723  -2.45676   2.00602 
 O                     2.68654  -2.75515   1.60786 
 Zn                    1.77025   0.3709    0.36132 
 O                    -1.16227  -1.96276   0.91067 
 H                    -2.06318  -2.14566   0.61123 
 H                    -0.69053  -2.81504   0.88328 
 O                     0.32616  -0.62987  -0.81241 
 H                    -0.29624  -1.13578  -0.20623 
 H                     0.55179  -3.37808  -0.79547 
 O                     0.75362  -3.79353   0.09182 
 H                     2.05017  -3.17232   0.97075 
 H                     0.71552  -4.75023  -0.01567 
 H                     3.33163   5.41418   0.48982 
 H                     2.03675   5.92801   1.57669 
 H                    -3.37131   2.16792   2.04765 
 H                    -3.12726   0.67111   2.94865 
 H                     3.76145  -4.41346  -0.20568 
 C                    -2.24791  -0.85645  -2.03813 
 C                    -2.72654  -2.18512  -2.00324 
 C                    -3.80154  -2.51732  -1.20829 
 C                    -4.45745  -1.55216  -0.42407 
 C                    -3.99665  -0.23452  -0.50829 
 C                    -2.90606   0.11873  -1.28481 
 H                    -2.22178  -2.92932  -2.60189 
 H                    -4.14972  -3.5421   -1.18357 
 H                    -2.57348   1.1492   -1.30444 
 O                    -1.17329  -0.53665  -2.74897 
 C                     0.09529  -1.1177   -2.20008 
 O                     0.25873  -2.4764   -2.10795 
 C                     1.27305  -0.50938  -3.03346 
 H                     2.29859  -0.81697  -2.82721 
 H                     1.01982  -0.8027   -4.04974 
 H                     1.20036   0.57183  -2.93396 
 C                    -5.65334   0.54787   1.03473 
 C                    -6.13743  -0.81301   1.13721 
 H                    -6.97523  -0.9631    1.80344 
 C                    -5.58312  -1.83059   0.44463 
 C                    -6.10153  -3.22931   0.55982 
 H                    -6.43765  -3.59212  -0.41345 
 H                    -5.31302  -3.90102   0.90437 
 H                    -6.93385  -3.27703   1.25798 
 O                    -6.10276   1.50519   1.61989 
 O                    -4.59439   0.77035   0.1963 
 O                    -2.2143    3.90394  -3.15103 
 H                    -1.95773   3.09138  -3.63816 
 H                    -3.1616    3.84186  -2.99624 
 O                    -1.32037   1.62812  -4.33181 
 H                    -0.58477   1.62554  -4.95145 
 H                    -1.24275   0.80793  -3.79107 
 
 Add virtual bond connecting atoms H51        and O50        Dist= 3.18D+00.
 Add virtual bond connecting atoms O69        and H49        Dist= 3.06D+00.
 Add virtual bond connecting atoms H48        and O44        Dist= 3.09D+00.
 Add virtual bond connecting atoms H89        and O67        Dist= 3.22D+00.
 Add virtual bond connecting atoms H11        and O84        Dist= 3.39D+00.
 Add virtual bond connecting atoms O87        and H85        Dist= 3.29D+00.
 The following ModRedundant input section has been read:
 X      27 F                                                                   
 X       1 F                                                                   
 X      14 F                                                                   
 B      67      68 B                                                           
 

 GradGradGradGradGradGradGradGradGradGradGradGradGradGradGradGradGradGrad
 Berny optimization.
 Initialization pass.
                           ----------------------------
                           !    Initial Parameters    !
                           ! (Angstroms and Degrees)  !
 --------------------------                            --------------------------
 ! Name  Definition              Value          Derivative Info.                !
 --------------------------------------------------------------------------------
 ! X1    R(1,-1)                 2.8344         frozen, calculate D2E/DX2 analyt!
 ! Y1    R(1,-2)                 5.1974         frozen, calculate D2E/DX2 analyt!
 ! Z1    R(1,-3)                 1.4358         frozen, calculate D2E/DX2 analyt!
 ! X14   R(14,-1)               -2.6673         frozen, calculate D2E/DX2 analyt!
 ! Y14   R(14,-2)                1.623          frozen, calculate D2E/DX2 analyt!
 ! Z14   R(14,-3)                2.6735         frozen, calculate D2E/DX2 analyt!
 ! X27   R(27,-1)                4.2459         frozen, calculate D2E/DX2 analyt!
 ! Y27   R(27,-2)               -3.4398         frozen, calculate D2E/DX2 analyt!
 ! Z27   R(27,-3)               -0.1095         frozen, calculate D2E/DX2 analyt!
 ! R1    R(1,2)                  1.0894         calculate D2E/DX2 analytically  !
 ! R2    R(1,3)                  1.5286         calculate D2E/DX2 analytically  !
 ! R3    R(1,53)                 1.0905         calculate D2E/DX2 analytically  !
 ! R4    R(1,54)                 1.0908         calculate D2E/DX2 analytically  !
 ! R5    R(3,4)                  1.0943         calculate D2E/DX2 analytically  !
 ! R6    R(3,5)                  1.0919         calculate D2E/DX2 analytically  !
 ! R7    R(3,7)                  1.4959         calculate D2E/DX2 analytically  !
 ! R8    R(6,7)                  1.382          calculate D2E/DX2 analytically  !
 ! R9    R(6,8)                  1.3253         calculate D2E/DX2 analytically  !
 ! R10   R(6,43)                 2.1043         calculate D2E/DX2 analytically  !
 ! R11   R(7,12)                 1.3668         calculate D2E/DX2 analytically  !
 ! R12   R(8,9)                  1.0796         calculate D2E/DX2 analytically  !
 ! R13   R(8,10)                 1.3345         calculate D2E/DX2 analytically  !
 ! R14   R(10,11)                1.0283         calculate D2E/DX2 analytically  !
 ! R15   R(10,12)                1.3721         calculate D2E/DX2 analytically  !
 ! R16   R(11,84)                1.7959         calculate D2E/DX2 analytically  !
 ! R17   R(12,13)                1.0753         calculate D2E/DX2 analytically  !
 ! R18   R(14,15)                1.0913         calculate D2E/DX2 analytically  !
 ! R19   R(14,16)                1.5331         calculate D2E/DX2 analytically  !
 ! R20   R(14,55)                1.0882         calculate D2E/DX2 analytically  !
 ! R21   R(14,56)                1.0924         calculate D2E/DX2 analytically  !
 ! R22   R(16,17)                1.0945         calculate D2E/DX2 analytically  !
 ! R23   R(16,18)                1.095          calculate D2E/DX2 analytically  !
 ! R24   R(16,20)                1.497          calculate D2E/DX2 analytically  !
 ! R25   R(19,20)                1.3904         calculate D2E/DX2 analytically  !
 ! R26   R(19,21)                1.3223         calculate D2E/DX2 analytically  !
 ! R27   R(19,43)                2.086          calculate D2E/DX2 analytically  !
 ! R28   R(20,25)                1.3627         calculate D2E/DX2 analytically  !
 ! R29   R(21,22)                1.0771         calculate D2E/DX2 analytically  !
 ! R30   R(21,23)                1.3359         calculate D2E/DX2 analytically  !
 ! R31   R(23,24)                1.0091         calculate D2E/DX2 analytically  !
 ! R32   R(23,25)                1.3754         calculate D2E/DX2 analytically  !
 ! R33   R(25,26)                1.0749         calculate D2E/DX2 analytically  !
 ! R34   R(27,28)                1.0873         calculate D2E/DX2 analytically  !
 ! R35   R(27,29)                1.5417         calculate D2E/DX2 analytically  !
 ! R36   R(27,40)                1.5116         calculate D2E/DX2 analytically  !
 ! R37   R(27,57)                1.0918         calculate D2E/DX2 analytically  !
 ! R38   R(29,30)                1.0901         calculate D2E/DX2 analytically  !
 ! R39   R(29,31)                1.0902         calculate D2E/DX2 analytically  !
 ! R40   R(29,33)                1.4953         calculate D2E/DX2 analytically  !
 ! R41   R(32,33)                1.3877         calculate D2E/DX2 analytically  !
 ! R42   R(32,34)                1.324          calculate D2E/DX2 analytically  !
 ! R43   R(32,43)                2.1125         calculate D2E/DX2 analytically  !
 ! R44   R(33,38)                1.363          calculate D2E/DX2 analytically  !
 ! R45   R(34,35)                1.077          calculate D2E/DX2 analytically  !
 ! R46   R(34,36)                1.3357         calculate D2E/DX2 analytically  !
 ! R47   R(36,37)                1.0099         calculate D2E/DX2 analytically  !
 ! R48   R(36,38)                1.37           calculate D2E/DX2 analytically  !
 ! R49   R(38,39)                1.0756         calculate D2E/DX2 analytically  !
 ! R50   R(40,41)                1.2072         calculate D2E/DX2 analytically  !
 ! R51   R(40,42)                1.3336         calculate D2E/DX2 analytically  !
 ! R52   R(42,51)                0.9924         calculate D2E/DX2 analytically  !
 ! R53   R(43,47)                2.1129         calculate D2E/DX2 analytically  !
 ! R54   R(44,45)                0.9668         calculate D2E/DX2 analytically  !
 ! R55   R(44,46)                0.9745         calculate D2E/DX2 analytically  !
 ! R56   R(44,48)                1.6375         calculate D2E/DX2 analytically  !
 ! R57   R(47,48)                1.0054         calculate D2E/DX2 analytically  !
 ! R58   R(47,68)                1.4889         calculate D2E/DX2 analytically  !
 ! R59   R(49,50)                1.0003         calculate D2E/DX2 analytically  !
 ! R60   R(49,69)                1.6191         calculate D2E/DX2 analytically  !
 ! R61   R(50,51)                1.6851         calculate D2E/DX2 analytically  !
 ! R62   R(50,52)                0.9635         calculate D2E/DX2 analytically  !
 ! R63   R(58,59)                1.4127         calculate D2E/DX2 analytically  !
 ! R64   R(58,63)                1.397          calculate D2E/DX2 analytically  !
 ! R65   R(58,67)                1.3275         calculate D2E/DX2 analytically  !
 ! R66   R(59,60)                1.3777         calculate D2E/DX2 analytically  !
 ! R67   R(59,64)                1.0803         calculate D2E/DX2 analytically  !
 ! R68   R(60,61)                1.406          calculate D2E/DX2 analytically  !
 ! R69   R(60,65)                1.0826         calculate D2E/DX2 analytically  !
 ! R70   R(61,62)                1.3984         calculate D2E/DX2 analytically  !
 ! R71   R(61,77)                1.4489         calculate D2E/DX2 analytically  !
 ! R72   R(62,63)                1.3846         calculate D2E/DX2 analytically  !
 ! R73   R(62,83)                1.3651         calculate D2E/DX2 analytically  !
 ! R74   R(63,66)                1.083          calculate D2E/DX2 analytically  !
 ! R75   R(67,68)                1.4994         calculate D2E/DX2 analytically  !
 ! R76   R(67,89)                1.7026         calculate D2E/DX2 analytically  !
 ! R77   R(68,69)                1.3716         calculate D2E/DX2 analytically  !
 ! R78   R(68,70)                1.5658         calculate D2E/DX2 analytically  !
 ! R79   R(70,71)                1.0904         calculate D2E/DX2 analytically  !
 ! R80   R(70,72)                1.0876         calculate D2E/DX2 analytically  !
 ! R81   R(70,73)                1.0882         calculate D2E/DX2 analytically  !
 ! R82   R(74,75)                1.448          calculate D2E/DX2 analytically  !
 ! R83   R(74,82)                1.2087         calculate D2E/DX2 analytically  !
 ! R84   R(74,83)                1.3689         calculate D2E/DX2 analytically  !
 ! R85   R(75,76)                1.0809         calculate D2E/DX2 analytically  !
 ! R86   R(75,77)                1.35           calculate D2E/DX2 analytically  !
 ! R87   R(77,78)                1.4961         calculate D2E/DX2 analytically  !
 ! R88   R(78,79)                1.0917         calculate D2E/DX2 analytically  !
 ! R89   R(78,80)                1.0916         calculate D2E/DX2 analytically  !
 ! R90   R(78,81)                1.0874         calculate D2E/DX2 analytically  !
 ! R91   R(84,85)                0.9815         calculate D2E/DX2 analytically  !
 ! R92   R(84,86)                0.9619         calculate D2E/DX2 analytically  !
 ! R93   R(85,87)                1.7403         calculate D2E/DX2 analytically  !
 ! R94   R(87,88)                0.9618         calculate D2E/DX2 analytically  !
 ! R95   R(87,89)                0.9855         calculate D2E/DX2 analytically  !
 ! A1    A(2,1,3)              110.4696         calculate D2E/DX2 analytically  !
 ! A2    A(2,1,53)             108.5341         calculate D2E/DX2 analytically  !
 ! A3    A(2,1,54)             107.8055         calculate D2E/DX2 analytically  !
 ! A4    A(3,1,53)             110.7521         calculate D2E/DX2 analytically  !
 ! A5    A(3,1,54)             110.9803         calculate D2E/DX2 analytically  !
 ! A6    A(53,1,54)            108.1984         calculate D2E/DX2 analytically  !
 ! A7    A(1,3,4)              109.8093         calculate D2E/DX2 analytically  !
 ! A8    A(1,3,5)              110.2056         calculate D2E/DX2 analytically  !
 ! A9    A(1,3,7)              112.9316         calculate D2E/DX2 analytically  !
 ! A10   A(4,3,5)              105.7967         calculate D2E/DX2 analytically  !
 ! A11   A(4,3,7)              108.9866         calculate D2E/DX2 analytically  !
 ! A12   A(5,3,7)              108.853          calculate D2E/DX2 analytically  !
 ! A13   A(7,6,8)              106.8084         calculate D2E/DX2 analytically  !
 ! A14   A(7,6,43)             131.434          calculate D2E/DX2 analytically  !
 ! A15   A(8,6,43)             120.8118         calculate D2E/DX2 analytically  !
 ! A16   A(3,7,6)              122.8087         calculate D2E/DX2 analytically  !
 ! A17   A(3,7,12)             129.0363         calculate D2E/DX2 analytically  !
 ! A18   A(6,7,12)             108.1175         calculate D2E/DX2 analytically  !
 ! A19   A(6,8,9)              125.6841         calculate D2E/DX2 analytically  !
 ! A20   A(6,8,10)             110.5377         calculate D2E/DX2 analytically  !
 ! A21   A(9,8,10)             123.7708         calculate D2E/DX2 analytically  !
 ! A22   A(8,10,11)            122.9906         calculate D2E/DX2 analytically  !
 ! A23   A(8,10,12)            108.0505         calculate D2E/DX2 analytically  !
 ! A24   A(11,10,12)           128.9563         calculate D2E/DX2 analytically  !
 ! A25   A(10,11,84)           157.3776         calculate D2E/DX2 analytically  !
 ! A26   A(7,12,10)            106.4831         calculate D2E/DX2 analytically  !
 ! A27   A(7,12,13)            131.4779         calculate D2E/DX2 analytically  !
 ! A28   A(10,12,13)           122.0388         calculate D2E/DX2 analytically  !
 ! A29   A(15,14,16)           110.962          calculate D2E/DX2 analytically  !
 ! A30   A(15,14,55)           108.3979         calculate D2E/DX2 analytically  !
 ! A31   A(15,14,56)           108.3107         calculate D2E/DX2 analytically  !
 ! A32   A(16,14,55)           110.3011         calculate D2E/DX2 analytically  !
 ! A33   A(16,14,56)           110.7831         calculate D2E/DX2 analytically  !
 ! A34   A(55,14,56)           107.9904         calculate D2E/DX2 analytically  !
 ! A35   A(14,16,17)           109.6615         calculate D2E/DX2 analytically  !
 ! A36   A(14,16,18)           110.0129         calculate D2E/DX2 analytically  !
 ! A37   A(14,16,20)           112.8841         calculate D2E/DX2 analytically  !
 ! A38   A(17,16,18)           106.5412         calculate D2E/DX2 analytically  !
 ! A39   A(17,16,20)           109.1336         calculate D2E/DX2 analytically  !
 ! A40   A(18,16,20)           108.4001         calculate D2E/DX2 analytically  !
 ! A41   A(20,19,21)           107.026          calculate D2E/DX2 analytically  !
 ! A42   A(20,19,43)           131.8621         calculate D2E/DX2 analytically  !
 ! A43   A(21,19,43)           121.0763         calculate D2E/DX2 analytically  !
 ! A44   A(16,20,19)           124.1254         calculate D2E/DX2 analytically  !
 ! A45   A(16,20,25)           127.9255         calculate D2E/DX2 analytically  !
 ! A46   A(19,20,25)           107.944          calculate D2E/DX2 analytically  !
 ! A47   A(19,21,22)           125.6651         calculate D2E/DX2 analytically  !
 ! A48   A(19,21,23)           110.2702         calculate D2E/DX2 analytically  !
 ! A49   A(22,21,23)           124.0472         calculate D2E/DX2 analytically  !
 ! A50   A(21,23,24)           125.4849         calculate D2E/DX2 analytically  !
 ! A51   A(21,23,25)           108.2864         calculate D2E/DX2 analytically  !
 ! A52   A(24,23,25)           126.2267         calculate D2E/DX2 analytically  !
 ! A53   A(20,25,23)           106.4732         calculate D2E/DX2 analytically  !
 ! A54   A(20,25,26)           131.526          calculate D2E/DX2 analytically  !
 ! A55   A(23,25,26)           121.9997         calculate D2E/DX2 analytically  !
 ! A56   A(28,27,29)           110.9048         calculate D2E/DX2 analytically  !
 ! A57   A(28,27,40)           108.4236         calculate D2E/DX2 analytically  !
 ! A58   A(28,27,57)           109.4046         calculate D2E/DX2 analytically  !
 ! A59   A(29,27,40)           108.9645         calculate D2E/DX2 analytically  !
 ! A60   A(29,27,57)           109.3561         calculate D2E/DX2 analytically  !
 ! A61   A(40,27,57)           109.7701         calculate D2E/DX2 analytically  !
 ! A62   A(27,29,30)           109.9112         calculate D2E/DX2 analytically  !
 ! A63   A(27,29,31)           108.5563         calculate D2E/DX2 analytically  !
 ! A64   A(27,29,33)           112.8317         calculate D2E/DX2 analytically  !
 ! A65   A(30,29,31)           106.6931         calculate D2E/DX2 analytically  !
 ! A66   A(30,29,33)           109.4048         calculate D2E/DX2 analytically  !
 ! A67   A(31,29,33)           109.2517         calculate D2E/DX2 analytically  !
 ! A68   A(33,32,34)           106.5564         calculate D2E/DX2 analytically  !
 ! A69   A(33,32,43)           136.1255         calculate D2E/DX2 analytically  !
 ! A70   A(34,32,43)           117.1782         calculate D2E/DX2 analytically  !
 ! A71   A(29,33,32)           124.3891         calculate D2E/DX2 analytically  !
 ! A72   A(29,33,38)           127.3064         calculate D2E/DX2 analytically  !
 ! A73   A(32,33,38)           108.302          calculate D2E/DX2 analytically  !
 ! A74   A(32,34,35)           126.0718         calculate D2E/DX2 analytically  !
 ! A75   A(32,34,36)           110.4704         calculate D2E/DX2 analytically  !
 ! A76   A(35,34,36)           123.4508         calculate D2E/DX2 analytically  !
 ! A77   A(34,36,37)           125.4523         calculate D2E/DX2 analytically  !
 ! A78   A(34,36,38)           108.2998         calculate D2E/DX2 analytically  !
 ! A79   A(37,36,38)           126.2434         calculate D2E/DX2 analytically  !
 ! A80   A(33,38,36)           106.3706         calculate D2E/DX2 analytically  !
 ! A81   A(33,38,39)           131.2102         calculate D2E/DX2 analytically  !
 ! A82   A(36,38,39)           122.4184         calculate D2E/DX2 analytically  !
 ! A83   A(27,40,41)           123.9355         calculate D2E/DX2 analytically  !
 ! A84   A(27,40,42)           116.3012         calculate D2E/DX2 analytically  !
 ! A85   A(41,40,42)           119.6786         calculate D2E/DX2 analytically  !
 ! A86   A(40,42,51)           114.5404         calculate D2E/DX2 analytically  !
 ! A87   A(6,43,19)            100.1318         calculate D2E/DX2 analytically  !
 ! A88   A(6,43,32)            110.346          calculate D2E/DX2 analytically  !
 ! A89   A(6,43,47)             93.2118         calculate D2E/DX2 analytically  !
 ! A90   A(19,43,32)           137.37           calculate D2E/DX2 analytically  !
 ! A91   A(19,43,47)            99.9986         calculate D2E/DX2 analytically  !
 ! A92   A(32,43,47)           107.0759         calculate D2E/DX2 analytically  !
 ! A93   A(45,44,46)           106.0762         calculate D2E/DX2 analytically  !
 ! A94   A(45,44,48)           112.1549         calculate D2E/DX2 analytically  !
 ! A95   A(46,44,48)            99.5842         calculate D2E/DX2 analytically  !
 ! A96   A(43,47,48)           109.0569         calculate D2E/DX2 analytically  !
 ! A97   A(43,47,68)           141.1573         calculate D2E/DX2 analytically  !
 ! A98   A(48,47,68)           107.5219         calculate D2E/DX2 analytically  !
 ! A99   A(49,50,51)           117.6974         calculate D2E/DX2 analytically  !
 ! A100  A(49,50,52)           107.7855         calculate D2E/DX2 analytically  !
 ! A101  A(51,50,52)           117.0446         calculate D2E/DX2 analytically  !
 ! A102  A(59,58,63)           118.9206         calculate D2E/DX2 analytically  !
 ! A103  A(59,58,67)           120.9343         calculate D2E/DX2 analytically  !
 ! A104  A(63,58,67)           120.1284         calculate D2E/DX2 analytically  !
 ! A105  A(58,59,60)           120.3595         calculate D2E/DX2 analytically  !
 ! A106  A(58,59,64)           118.42           calculate D2E/DX2 analytically  !
 ! A107  A(60,59,64)           121.2153         calculate D2E/DX2 analytically  !
 ! A108  A(59,60,61)           121.3558         calculate D2E/DX2 analytically  !
 ! A109  A(59,60,65)           119.4979         calculate D2E/DX2 analytically  !
 ! A110  A(61,60,65)           119.1462         calculate D2E/DX2 analytically  !
 ! A111  A(60,61,62)           117.3551         calculate D2E/DX2 analytically  !
 ! A112  A(60,61,77)           124.3987         calculate D2E/DX2 analytically  !
 ! A113  A(62,61,77)           118.2405         calculate D2E/DX2 analytically  !
 ! A114  A(61,62,63)           122.2558         calculate D2E/DX2 analytically  !
 ! A115  A(61,62,83)           121.213          calculate D2E/DX2 analytically  !
 ! A116  A(63,62,83)           116.5227         calculate D2E/DX2 analytically  !
 ! A117  A(58,63,62)           119.6961         calculate D2E/DX2 analytically  !
 ! A118  A(58,63,66)           120.6466         calculate D2E/DX2 analytically  !
 ! A119  A(62,63,66)           119.657          calculate D2E/DX2 analytically  !
 ! A120  A(58,67,68)           113.2967         calculate D2E/DX2 analytically  !
 ! A121  A(58,67,89)           119.0102         calculate D2E/DX2 analytically  !
 ! A122  A(68,67,89)           124.3764         calculate D2E/DX2 analytically  !
 ! A123  A(47,68,67)           110.206          calculate D2E/DX2 analytically  !
 ! A124  A(47,68,69)           104.092          calculate D2E/DX2 analytically  !
 ! A125  A(47,68,70)           104.603          calculate D2E/DX2 analytically  !
 ! A126  A(67,68,69)           120.6168         calculate D2E/DX2 analytically  !
 ! A127  A(67,68,70)           106.9176         calculate D2E/DX2 analytically  !
 ! A128  A(69,68,70)           109.3278         calculate D2E/DX2 analytically  !
 ! A129  A(49,69,68)           128.8796         calculate D2E/DX2 analytically  !
 ! A130  A(68,70,71)           119.8149         calculate D2E/DX2 analytically  !
 ! A131  A(68,70,72)           102.5577         calculate D2E/DX2 analytically  !
 ! A132  A(68,70,73)           106.6842         calculate D2E/DX2 analytically  !
 ! A133  A(71,70,72)           108.6418         calculate D2E/DX2 analytically  !
 ! A134  A(71,70,73)           109.0146         calculate D2E/DX2 analytically  !
 ! A135  A(72,70,73)           109.7444         calculate D2E/DX2 analytically  !
 ! A136  A(75,74,82)           125.86           calculate D2E/DX2 analytically  !
 ! A137  A(75,74,83)           117.0457         calculate D2E/DX2 analytically  !
 ! A138  A(82,74,83)           117.0939         calculate D2E/DX2 analytically  !
 ! A139  A(74,75,76)           115.6739         calculate D2E/DX2 analytically  !
 ! A140  A(74,75,77)           122.3325         calculate D2E/DX2 analytically  !
 ! A141  A(76,75,77)           121.9935         calculate D2E/DX2 analytically  !
 ! A142  A(61,77,75)           118.8002         calculate D2E/DX2 analytically  !
 ! A143  A(61,77,78)           119.6709         calculate D2E/DX2 analytically  !
 ! A144  A(75,77,78)           121.5286         calculate D2E/DX2 analytically  !
 ! A145  A(77,78,79)           110.4094         calculate D2E/DX2 analytically  !
 ! A146  A(77,78,80)           110.4431         calculate D2E/DX2 analytically  !
 ! A147  A(77,78,81)           110.8348         calculate D2E/DX2 analytically  !
 ! A148  A(79,78,80)           107.4144         calculate D2E/DX2 analytically  !
 ! A149  A(79,78,81)           108.7924         calculate D2E/DX2 analytically  !
 ! A150  A(80,78,81)           108.8582         calculate D2E/DX2 analytically  !
 ! A151  A(62,83,74)           122.3597         calculate D2E/DX2 analytically  !
 ! A152  A(11,84,85)           104.269          calculate D2E/DX2 analytically  !
 ! A153  A(11,84,86)           121.7702         calculate D2E/DX2 analytically  !
 ! A154  A(85,84,86)           106.4915         calculate D2E/DX2 analytically  !
 ! A155  A(85,87,88)           122.6262         calculate D2E/DX2 analytically  !
 ! A156  A(85,87,89)           120.6602         calculate D2E/DX2 analytically  !
 ! A157  A(88,87,89)           106.9199         calculate D2E/DX2 analytically  !
 ! A158  L(44,48,47,4,-1)      175.9308         calculate D2E/DX2 analytically  !
 ! A159  L(50,49,69,1,-1)      170.8358         calculate D2E/DX2 analytically  !
 ! A160  L(42,51,50,6,-1)      177.3032         calculate D2E/DX2 analytically  !
 ! A161  L(84,85,87,3,-1)      171.7479         calculate D2E/DX2 analytically  !
 ! A162  L(67,89,87,1,-1)      177.3813         calculate D2E/DX2 analytically  !
 ! A163  L(44,48,47,4,-2)      174.1241         calculate D2E/DX2 analytically  !
 ! A164  L(50,49,69,1,-2)      181.6452         calculate D2E/DX2 analytically  !
 ! A165  L(42,51,50,6,-2)      190.2656         calculate D2E/DX2 analytically  !
 ! A166  L(84,85,87,3,-2)      180.0075         calculate D2E/DX2 analytically  !
 ! A167  L(67,89,87,1,-2)      184.1272         calculate D2E/DX2 analytically  !
 ! D1    D(2,1,3,4)             58.716          calculate D2E/DX2 analytically  !
 ! D2    D(2,1,3,5)            -57.4447         calculate D2E/DX2 analytically  !
 ! D3    D(2,1,3,7)           -179.4221         calculate D2E/DX2 analytically  !
 ! D4    D(53,1,3,4)           178.999          calculate D2E/DX2 analytically  !
 ! D5    D(53,1,3,5)            62.8384         calculate D2E/DX2 analytically  !
 ! D6    D(53,1,3,7)           -59.139          calculate D2E/DX2 analytically  !
 ! D7    D(54,1,3,4)           -60.803          calculate D2E/DX2 analytically  !
 ! D8    D(54,1,3,5)          -176.9637         calculate D2E/DX2 analytically  !
 ! D9    D(54,1,3,7)            61.0589         calculate D2E/DX2 analytically  !
 ! D10   D(1,3,7,6)            152.228          calculate D2E/DX2 analytically  !
 ! D11   D(1,3,7,12)           -30.274          calculate D2E/DX2 analytically  !
 ! D12   D(4,3,7,6)            -85.4481         calculate D2E/DX2 analytically  !
 ! D13   D(4,3,7,12)            92.0498         calculate D2E/DX2 analytically  !
 ! D14   D(5,3,7,6)             29.4933         calculate D2E/DX2 analytically  !
 ! D15   D(5,3,7,12)          -153.0087         calculate D2E/DX2 analytically  !
 ! D16   D(8,6,7,3)            177.4363         calculate D2E/DX2 analytically  !
 ! D17   D(8,6,7,12)            -0.519          calculate D2E/DX2 analytically  !
 ! D18   D(43,6,7,3)             8.8154         calculate D2E/DX2 analytically  !
 ! D19   D(43,6,7,12)         -169.14           calculate D2E/DX2 analytically  !
 ! D20   D(7,6,8,9)           -178.707          calculate D2E/DX2 analytically  !
 ! D21   D(7,6,8,10)             0.329          calculate D2E/DX2 analytically  !
 ! D22   D(43,6,8,9)            -8.6244         calculate D2E/DX2 analytically  !
 ! D23   D(43,6,8,10)          170.4116         calculate D2E/DX2 analytically  !
 ! D24   D(7,6,43,19)           62.4477         calculate D2E/DX2 analytically  !
 ! D25   D(7,6,43,32)          -87.2524         calculate D2E/DX2 analytically  !
 ! D26   D(7,6,43,47)          163.2067         calculate D2E/DX2 analytically  !
 ! D27   D(8,6,43,19)         -104.8486         calculate D2E/DX2 analytically  !
 ! D28   D(8,6,43,32)          105.4513         calculate D2E/DX2 analytically  !
 ! D29   D(8,6,43,47)           -4.0896         calculate D2E/DX2 analytically  !
 ! D30   D(3,7,12,10)         -177.2802         calculate D2E/DX2 analytically  !
 ! D31   D(3,7,12,13)            2.5544         calculate D2E/DX2 analytically  !
 ! D32   D(6,7,12,10)            0.5073         calculate D2E/DX2 analytically  !
 ! D33   D(6,7,12,13)         -179.658          calculate D2E/DX2 analytically  !
 ! D34   D(6,8,10,11)          179.443          calculate D2E/DX2 analytically  !
 ! D35   D(6,8,10,12)           -0.0142         calculate D2E/DX2 analytically  !
 ! D36   D(9,8,10,11)           -1.4989         calculate D2E/DX2 analytically  !
 ! D37   D(9,8,10,12)          179.0439         calculate D2E/DX2 analytically  !
 ! D38   D(8,10,11,84)         -10.2493         calculate D2E/DX2 analytically  !
 ! D39   D(12,10,11,84)        169.087          calculate D2E/DX2 analytically  !
 ! D40   D(8,10,12,7)           -0.3096         calculate D2E/DX2 analytically  !
 ! D41   D(8,10,12,13)         179.8365         calculate D2E/DX2 analytically  !
 ! D42   D(11,10,12,7)        -179.7241         calculate D2E/DX2 analytically  !
 ! D43   D(11,10,12,13)          0.422          calculate D2E/DX2 analytically  !
 ! D44   D(10,11,84,85)        -11.7124         calculate D2E/DX2 analytically  !
 ! D45   D(10,11,84,86)        108.4224         calculate D2E/DX2 analytically  !
 ! D46   D(15,14,16,17)        -63.1913         calculate D2E/DX2 analytically  !
 ! D47   D(15,14,16,18)        179.9433         calculate D2E/DX2 analytically  !
 ! D48   D(15,14,16,20)         58.7203         calculate D2E/DX2 analytically  !
 ! D49   D(55,14,16,17)         56.9471         calculate D2E/DX2 analytically  !
 ! D50   D(55,14,16,18)        -59.9183         calculate D2E/DX2 analytically  !
 ! D51   D(55,14,16,20)        178.8587         calculate D2E/DX2 analytically  !
 ! D52   D(56,14,16,17)        176.4609         calculate D2E/DX2 analytically  !
 ! D53   D(56,14,16,18)         59.5955         calculate D2E/DX2 analytically  !
 ! D54   D(56,14,16,20)        -61.6275         calculate D2E/DX2 analytically  !
 ! D55   D(14,16,20,19)        172.396          calculate D2E/DX2 analytically  !
 ! D56   D(14,16,20,25)         -6.6759         calculate D2E/DX2 analytically  !
 ! D57   D(17,16,20,19)        -65.3957         calculate D2E/DX2 analytically  !
 ! D58   D(17,16,20,25)        115.5325         calculate D2E/DX2 analytically  !
 ! D59   D(18,16,20,19)         50.2625         calculate D2E/DX2 analytically  !
 ! D60   D(18,16,20,25)       -128.8094         calculate D2E/DX2 analytically  !
 ! D61   D(21,19,20,16)       -179.2648         calculate D2E/DX2 analytically  !
 ! D62   D(21,19,20,25)         -0.0344         calculate D2E/DX2 analytically  !
 ! D63   D(43,19,20,16)          2.9506         calculate D2E/DX2 analytically  !
 ! D64   D(43,19,20,25)       -177.8189         calculate D2E/DX2 analytically  !
 ! D65   D(20,19,21,22)        178.4546         calculate D2E/DX2 analytically  !
 ! D66   D(20,19,21,23)         -0.0675         calculate D2E/DX2 analytically  !
 ! D67   D(43,19,21,22)         -3.4717         calculate D2E/DX2 analytically  !
 ! D68   D(43,19,21,23)        178.0062         calculate D2E/DX2 analytically  !
 ! D69   D(20,19,43,6)          34.1791         calculate D2E/DX2 analytically  !
 ! D70   D(20,19,43,32)        169.8745         calculate D2E/DX2 analytically  !
 ! D71   D(20,19,43,47)        -60.9441         calculate D2E/DX2 analytically  !
 ! D72   D(21,19,43,6)        -143.3474         calculate D2E/DX2 analytically  !
 ! D73   D(21,19,43,32)         -7.652          calculate D2E/DX2 analytically  !
 ! D74   D(21,19,43,47)        121.5294         calculate D2E/DX2 analytically  !
 ! D75   D(16,20,25,23)        179.3106         calculate D2E/DX2 analytically  !
 ! D76   D(16,20,25,26)         -0.3031         calculate D2E/DX2 analytically  !
 ! D77   D(19,20,25,23)          0.1182         calculate D2E/DX2 analytically  !
 ! D78   D(19,20,25,26)       -179.4954         calculate D2E/DX2 analytically  !
 ! D79   D(19,21,23,24)        179.654          calculate D2E/DX2 analytically  !
 ! D80   D(19,21,23,25)          0.1432         calculate D2E/DX2 analytically  !
 ! D81   D(22,21,23,24)          1.1031         calculate D2E/DX2 analytically  !
 ! D82   D(22,21,23,25)       -178.4077         calculate D2E/DX2 analytically  !
 ! D83   D(21,23,25,20)         -0.1596         calculate D2E/DX2 analytically  !
 ! D84   D(21,23,25,26)        179.4993         calculate D2E/DX2 analytically  !
 ! D85   D(24,23,25,20)       -179.6658         calculate D2E/DX2 analytically  !
 ! D86   D(24,23,25,26)         -0.0069         calculate D2E/DX2 analytically  !
 ! D87   D(28,27,29,30)        177.2057         calculate D2E/DX2 analytically  !
 ! D88   D(28,27,29,31)         60.8556         calculate D2E/DX2 analytically  !
 ! D89   D(28,27,29,33)        -60.3892         calculate D2E/DX2 analytically  !
 ! D90   D(40,27,29,30)        -63.5207         calculate D2E/DX2 analytically  !
 ! D91   D(40,27,29,31)       -179.8708         calculate D2E/DX2 analytically  !
 ! D92   D(40,27,29,33)         58.8844         calculate D2E/DX2 analytically  !
 ! D93   D(57,27,29,30)         56.4663         calculate D2E/DX2 analytically  !
 ! D94   D(57,27,29,31)        -59.8838         calculate D2E/DX2 analytically  !
 ! D95   D(57,27,29,33)        178.8714         calculate D2E/DX2 analytically  !
 ! D96   D(28,27,40,41)          8.6531         calculate D2E/DX2 analytically  !
 ! D97   D(28,27,40,42)       -174.7127         calculate D2E/DX2 analytically  !
 ! D98   D(29,27,40,41)       -112.1538         calculate D2E/DX2 analytically  !
 ! D99   D(29,27,40,42)         64.4804         calculate D2E/DX2 analytically  !
 ! D100  D(57,27,40,41)        128.1154         calculate D2E/DX2 analytically  !
 ! D101  D(57,27,40,42)        -55.2504         calculate D2E/DX2 analytically  !
 ! D102  D(27,29,33,32)       -100.4053         calculate D2E/DX2 analytically  !
 ! D103  D(27,29,33,38)         78.9457         calculate D2E/DX2 analytically  !
 ! D104  D(30,29,33,32)         22.2832         calculate D2E/DX2 analytically  !
 ! D105  D(30,29,33,38)       -158.3658         calculate D2E/DX2 analytically  !
 ! D106  D(31,29,33,32)        138.7454         calculate D2E/DX2 analytically  !
 ! D107  D(31,29,33,38)        -41.9036         calculate D2E/DX2 analytically  !
 ! D108  D(34,32,33,29)        179.6323         calculate D2E/DX2 analytically  !
 ! D109  D(34,32,33,38)          0.176          calculate D2E/DX2 analytically  !
 ! D110  D(43,32,33,29)         -5.0007         calculate D2E/DX2 analytically  !
 ! D111  D(43,32,33,38)        175.543          calculate D2E/DX2 analytically  !
 ! D112  D(33,32,34,35)        178.765          calculate D2E/DX2 analytically  !
 ! D113  D(33,32,34,36)         -0.293          calculate D2E/DX2 analytically  !
 ! D114  D(43,32,34,35)          2.373          calculate D2E/DX2 analytically  !
 ! D115  D(43,32,34,36)       -176.685          calculate D2E/DX2 analytically  !
 ! D116  D(33,32,43,6)        -139.2285         calculate D2E/DX2 analytically  !
 ! D117  D(33,32,43,19)         87.938          calculate D2E/DX2 analytically  !
 ! D118  D(33,32,43,47)        -39.0672         calculate D2E/DX2 analytically  !
 ! D119  D(34,32,43,6)          35.7785         calculate D2E/DX2 analytically  !
 ! D120  D(34,32,43,19)        -97.055          calculate D2E/DX2 analytically  !
 ! D121  D(34,32,43,47)        135.9398         calculate D2E/DX2 analytically  !
 ! D122  D(29,33,38,36)       -179.4346         calculate D2E/DX2 analytically  !
 ! D123  D(29,33,38,39)          0.9007         calculate D2E/DX2 analytically  !
 ! D124  D(32,33,38,36)          0.0013         calculate D2E/DX2 analytically  !
 ! D125  D(32,33,38,39)       -179.6634         calculate D2E/DX2 analytically  !
 ! D126  D(32,34,36,37)        179.5662         calculate D2E/DX2 analytically  !
 ! D127  D(32,34,36,38)          0.3            calculate D2E/DX2 analytically  !
 ! D128  D(35,34,36,37)          0.4788         calculate D2E/DX2 analytically  !
 ! D129  D(35,34,36,38)       -178.7874         calculate D2E/DX2 analytically  !
 ! D130  D(34,36,38,33)         -0.1783         calculate D2E/DX2 analytically  !
 ! D131  D(34,36,38,39)        179.5229         calculate D2E/DX2 analytically  !
 ! D132  D(37,36,38,33)       -179.4371         calculate D2E/DX2 analytically  !
 ! D133  D(37,36,38,39)          0.264          calculate D2E/DX2 analytically  !
 ! D134  D(27,40,42,51)          7.3982         calculate D2E/DX2 analytically  !
 ! D135  D(41,40,42,51)       -175.8158         calculate D2E/DX2 analytically  !
 ! D136  D(40,42,50,49)        -69.9695         calculate D2E/DX2 analytically  !
 ! D137  D(40,42,50,52)         64.797          calculate D2E/DX2 analytically  !
 ! D138  D(6,43,47,48)        -114.9945         calculate D2E/DX2 analytically  !
 ! D139  D(6,43,47,68)          85.4761         calculate D2E/DX2 analytically  !
 ! D140  D(19,43,47,48)        -14.1117         calculate D2E/DX2 analytically  !
 ! D141  D(19,43,47,68)       -173.6411         calculate D2E/DX2 analytically  !
 ! D142  D(32,43,47,48)        132.5769         calculate D2E/DX2 analytically  !
 ! D143  D(32,43,47,68)        -26.9525         calculate D2E/DX2 analytically  !
 ! D144  D(45,44,47,43)        154.1672         calculate D2E/DX2 analytically  !
 ! D145  D(45,44,47,68)        -40.6203         calculate D2E/DX2 analytically  !
 ! D146  D(46,44,47,43)        -93.581          calculate D2E/DX2 analytically  !
 ! D147  D(46,44,47,68)         71.6315         calculate D2E/DX2 analytically  !
 ! D148  D(43,47,68,67)       -123.9873         calculate D2E/DX2 analytically  !
 ! D149  D(43,47,68,69)        105.3258         calculate D2E/DX2 analytically  !
 ! D150  D(43,47,68,70)         -9.3848         calculate D2E/DX2 analytically  !
 ! D151  D(48,47,68,67)         76.2948         calculate D2E/DX2 analytically  !
 ! D152  D(48,47,68,69)        -54.392          calculate D2E/DX2 analytically  !
 ! D153  D(48,47,68,70)       -169.1027         calculate D2E/DX2 analytically  !
 ! D154  D(51,50,69,68)        -51.0912         calculate D2E/DX2 analytically  !
 ! D155  D(52,50,69,68)        171.9677         calculate D2E/DX2 analytically  !
 ! D156  D(63,58,59,60)         -1.8365         calculate D2E/DX2 analytically  !
 ! D157  D(63,58,59,64)        178.978          calculate D2E/DX2 analytically  !
 ! D158  D(67,58,59,60)        176.684          calculate D2E/DX2 analytically  !
 ! D159  D(67,58,59,64)         -2.5016         calculate D2E/DX2 analytically  !
 ! D160  D(59,58,63,62)          0.8839         calculate D2E/DX2 analytically  !
 ! D161  D(59,58,63,66)       -178.9315         calculate D2E/DX2 analytically  !
 ! D162  D(67,58,63,62)       -177.6488         calculate D2E/DX2 analytically  !
 ! D163  D(67,58,63,66)          2.5358         calculate D2E/DX2 analytically  !
 ! D164  D(59,58,67,68)        -68.3882         calculate D2E/DX2 analytically  !
 ! D165  D(59,58,67,89)        131.2676         calculate D2E/DX2 analytically  !
 ! D166  D(63,58,67,68)        110.1145         calculate D2E/DX2 analytically  !
 ! D167  D(63,58,67,89)        -50.2297         calculate D2E/DX2 analytically  !
 ! D168  D(58,59,60,61)          0.5915         calculate D2E/DX2 analytically  !
 ! D169  D(58,59,60,65)       -179.3069         calculate D2E/DX2 analytically  !
 ! D170  D(64,59,60,61)        179.754          calculate D2E/DX2 analytically  !
 ! D171  D(64,59,60,65)         -0.1445         calculate D2E/DX2 analytically  !
 ! D172  D(59,60,61,62)          1.5591         calculate D2E/DX2 analytically  !
 ! D173  D(59,60,61,77)       -179.3274         calculate D2E/DX2 analytically  !
 ! D174  D(65,60,61,62)       -178.5421         calculate D2E/DX2 analytically  !
 ! D175  D(65,60,61,77)          0.5714         calculate D2E/DX2 analytically  !
 ! D176  D(60,61,62,63)         -2.5497         calculate D2E/DX2 analytically  !
 ! D177  D(60,61,62,83)        178.551          calculate D2E/DX2 analytically  !
 ! D178  D(77,61,62,63)        178.2806         calculate D2E/DX2 analytically  !
 ! D179  D(77,61,62,83)         -0.6186         calculate D2E/DX2 analytically  !
 ! D180  D(60,61,77,75)       -179.2702         calculate D2E/DX2 analytically  !
 ! D181  D(60,61,77,78)          0.9469         calculate D2E/DX2 analytically  !
 ! D182  D(62,61,77,75)         -0.164          calculate D2E/DX2 analytically  !
 ! D183  D(62,61,77,78)       -179.9469         calculate D2E/DX2 analytically  !
 ! D184  D(61,62,63,58)          1.3469         calculate D2E/DX2 analytically  !
 ! D185  D(61,62,63,66)       -178.8359         calculate D2E/DX2 analytically  !
 ! D186  D(83,62,63,58)       -179.7053         calculate D2E/DX2 analytically  !
 ! D187  D(83,62,63,66)          0.112          calculate D2E/DX2 analytically  !
 ! D188  D(61,62,83,74)          1.1196         calculate D2E/DX2 analytically  !
 ! D189  D(63,62,83,74)       -177.84           calculate D2E/DX2 analytically  !
 ! D190  D(58,67,68,47)        -59.9824         calculate D2E/DX2 analytically  !
 ! D191  D(58,67,68,69)         61.3018         calculate D2E/DX2 analytically  !
 ! D192  D(58,67,68,70)       -173.1082         calculate D2E/DX2 analytically  !
 ! D193  D(89,67,68,47)         99.1374         calculate D2E/DX2 analytically  !
 ! D194  D(89,67,68,69)       -139.5784         calculate D2E/DX2 analytically  !
 ! D195  D(89,67,68,70)        -13.9883         calculate D2E/DX2 analytically  !
 ! D196  D(58,67,87,85)         48.2169         calculate D2E/DX2 analytically  !
 ! D197  D(58,67,87,88)       -165.5041         calculate D2E/DX2 analytically  !
 ! D198  D(68,67,87,85)       -107.9737         calculate D2E/DX2 analytically  !
 ! D199  D(68,67,87,88)         38.3052         calculate D2E/DX2 analytically  !
 ! D200  D(47,68,69,49)          3.1222         calculate D2E/DX2 analytically  !
 ! D201  D(67,68,69,49)       -121.097          calculate D2E/DX2 analytically  !
 ! D202  D(70,68,69,49)        114.4385         calculate D2E/DX2 analytically  !
 ! D203  D(47,68,70,71)         64.983          calculate D2E/DX2 analytically  !
 ! D204  D(47,68,70,72)       -174.6795         calculate D2E/DX2 analytically  !
 ! D205  D(47,68,70,73)        -59.3339         calculate D2E/DX2 analytically  !
 ! D206  D(67,68,70,71)       -178.1247         calculate D2E/DX2 analytically  !
 ! D207  D(67,68,70,72)        -57.7871         calculate D2E/DX2 analytically  !
 ! D208  D(67,68,70,73)         57.5585         calculate D2E/DX2 analytically  !
 ! D209  D(69,68,70,71)        -45.9954         calculate D2E/DX2 analytically  !
 ! D210  D(69,68,70,72)         74.3421         calculate D2E/DX2 analytically  !
 ! D211  D(69,68,70,73)       -170.3123         calculate D2E/DX2 analytically  !
 ! D212  D(82,74,75,76)         -0.1024         calculate D2E/DX2 analytically  !
 ! D213  D(82,74,75,77)        179.7392         calculate D2E/DX2 analytically  !
 ! D214  D(83,74,75,76)       -179.8719         calculate D2E/DX2 analytically  !
 ! D215  D(83,74,75,77)         -0.0304         calculate D2E/DX2 analytically  !
 ! D216  D(75,74,83,62)         -0.7799         calculate D2E/DX2 analytically  !
 ! D217  D(82,74,83,62)        179.4299         calculate D2E/DX2 analytically  !
 ! D218  D(74,75,77,61)          0.4806         calculate D2E/DX2 analytically  !
 ! D219  D(74,75,77,78)       -179.7408         calculate D2E/DX2 analytically  !
 ! D220  D(76,75,77,61)       -179.6878         calculate D2E/DX2 analytically  !
 ! D221  D(76,75,77,78)          0.0909         calculate D2E/DX2 analytically  !
 ! D222  D(61,77,78,79)        -60.251          calculate D2E/DX2 analytically  !
 ! D223  D(61,77,78,80)         58.4008         calculate D2E/DX2 analytically  !
 ! D224  D(61,77,78,81)        179.1274         calculate D2E/DX2 analytically  !
 ! D225  D(75,77,78,79)        119.9722         calculate D2E/DX2 analytically  !
 ! D226  D(75,77,78,80)       -121.376          calculate D2E/DX2 analytically  !
 ! D227  D(75,77,78,81)         -0.6494         calculate D2E/DX2 analytically  !
 ! D228  D(11,84,87,88)        -83.2655         calculate D2E/DX2 analytically  !
 ! D229  D(11,84,87,89)         54.8095         calculate D2E/DX2 analytically  !
 ! D230  D(86,84,87,88)        148.1193         calculate D2E/DX2 analytically  !
 ! D231  D(86,84,87,89)        -73.8057         calculate D2E/DX2 analytically  !
 --------------------------------------------------------------------------------
 Trust Radius=3.00D-01 FncErr=1.00D-07 GrdErr=1.00D-06 EigMax=2.50D+02 EigMin=1.00D-04
 Number of steps in this run=    512 maximum allowed number of steps=    534.
 GradGradGradGradGradGradGradGradGradGradGradGradGradGradGradGradGradGrad

 Stoichiometry    C28H43N6O11Zn(1+)
 Framework group  C1[X(C28H43N6O11Zn)]
 Deg. of freedom   261
 Full point group                 C1      NOp   1
 Largest Abelian subgroup         C1      NOp   1
 Largest concise Abelian subgroup C1      NOp   1
                         Standard orientation:                         
 ---------------------------------------------------------------------
 Center     Atomic      Atomic             Coordinates (Angstroms)
 Number     Number       Type             X           Y           Z
 ---------------------------------------------------------------------
      1          6           0        2.845487    5.190581    1.441522
      2          1           0        3.565832    5.320808    2.248282
      3          6           0        2.289028    3.766895    1.446372
      4          1           0        1.810577    3.559008    2.408333
      5          1           0        3.102245    3.043820    1.356445
      6          7           0        1.090302    2.274465   -0.203985
      7          6           0        1.301966    3.523180    0.349137
      8          6           0        0.121366    2.410505   -1.097888
      9          1           0       -0.299142    1.616587   -1.696577
     10          7           0       -0.292114    3.678260   -1.150896
     11          1           0       -1.033147    3.999373   -1.787454
     12          6           0        0.443057    4.403378   -0.247294
     13          1           0        0.294262    5.459097   -0.107179
     14          6           0       -2.658209    1.619873    2.681038
     15          1           0       -2.488738    2.194297    3.593301
     16          6           0       -1.344258    1.390617    1.925219
     17          1           0       -0.931190    2.352163    1.604705
     18          1           0       -1.531861    0.812705    1.014270
     19          7           0        0.890961    0.202278    2.243534
     20          6           0       -0.321307    0.665159    2.742799
     21          6           0        1.518097   -0.395590    3.242378
     22          1           0        2.476336   -0.883446    3.180067
     23          7           0        0.777521   -0.340758    4.352867
     24          1           0        1.034303   -0.729527    5.248012
     25          6           0       -0.390788    0.323386    4.060098
     26          1           0       -1.154402    0.485472    4.799046
     27          6           0        4.246463   -3.445790   -0.118133
     28          1           0        5.321112   -3.565427   -0.232034
     29          6           0        3.683774   -2.485333   -1.184772
     30          1           0        2.600269   -2.415687   -1.087078
     31          1           0        3.882907   -2.906433   -2.170475
     32          7           0        3.658934   -0.025556   -0.510502
     33          6           0        4.278888   -1.115932   -1.104260
     34          6           0        4.493954    0.994903   -0.630793
     35          1           0        4.317236    2.002127   -0.292857
     36          7           0        5.609017    0.614380   -1.259966
     37          1           0        6.392880    1.213232   -1.476492
     38          6           0        5.495057   -0.714957   -1.571169
     39          1           0        6.267273   -1.253709   -2.091036
     40          6           0        3.972354   -2.871974    1.253192
     41          8           0        4.831429   -2.466369    1.998064
     42          8           0        2.689942   -2.762048    1.602203
     43         30           0        1.775185    0.366715    0.361366
     44          8           0       -1.158956   -1.964803    0.911071
     45          1           0       -2.060434   -2.146373    0.612518
     46          1           0       -0.688105   -2.817521    0.881842
     47          8           0        0.328601   -0.630899   -0.811970
     48          1           0       -0.293526   -1.137074   -0.205729
     49          1           0        0.551512   -3.379363   -0.799302
     50          8           0        0.754051   -3.796296    0.087127
     51          1           0        2.052344   -3.177658    0.965304
     52          1           0        0.714858   -4.752798   -0.021707
     53          1           0        3.341769    5.408243    0.495199
     54          1           0        2.048788    5.921794    1.584459
     55          1           0       -3.362418    2.166419    2.056856
     56          1           0       -3.118722    0.668054    2.955378
     57          1           0        3.760881   -4.418797   -0.215108
     58          6           0       -2.247248   -0.853138   -2.034732
     59          6           0       -2.727165   -2.181378   -2.001162
     60          6           0       -3.801485   -2.513660   -1.205319
     61          6           0       -4.455428   -1.548986   -0.418871
     62          6           0       -3.993421   -0.231685   -0.501761
     63          6           0       -2.903468    0.121606   -1.279155
     64          1           0       -2.223911   -2.925207   -2.601527
     65          1           0       -4.150656   -3.538127   -1.181644
     66          1           0       -2.569877    1.151767   -1.297714
     67          8           0       -1.173222   -0.533377   -2.746482
     68          6           0        0.095475   -1.116492   -2.200052
     69          8           0        0.257683   -2.475483   -2.110098
     70          6           0        1.272782   -0.508137   -3.034048
     71          1           0        2.298282   -0.817042   -2.829555
     72          1           0        1.017967   -0.799720   -4.050428
     73          1           0        1.201298    0.573003   -2.932883
     74          6           0       -5.647358    0.550119    1.044501
     75          6           0       -6.132678   -0.810425    1.145622
     76          1           0       -6.969773   -0.960650    1.812702
     77          6           0       -5.580266   -1.827553    0.450857
     78          6           0       -6.099927   -3.225923    0.564684
     79          1           0       -6.437646   -3.586983   -0.408684
     80          1           0       -5.311651   -3.898918    0.907254
     81          1           0       -6.931406   -3.273826    1.263837
     82          8           0       -6.095072    1.507036    1.631622
     83          8           0       -4.589259    0.772754    0.205043
     84          8           0       -2.210300    3.908833   -3.140768
     85          1           0       -1.955164    3.096722   -3.629403
     86          1           0       -3.157460    3.847471   -2.984862
     87          8           0       -1.320153    1.633837   -4.325986
     88          1           0       -0.585346    1.631419   -4.946566
     89          1           0       -1.242664    0.812786   -3.786534
 ---------------------------------------------------------------------
 Rotational constants (GHZ):           0.0867105           0.0523440           0.0481002
 General basis read from cards:  (5D, 7F)
 ======================================================================================================
                                       Pseudopotential Parameters
 ======================================================================================================
  Center     Atomic      Valence      Angular      Power
  Number     Number     Electrons     Momentum     of R      Exponent        Coefficient   SO-Coeffient
 ======================================================================================================
    1          6
                                   No pseudopotential on this center.
    2          1
                                   No pseudopotential on this center.
    3          6
                                   No pseudopotential on this center.
    4          1
                                   No pseudopotential on this center.
    5          1
                                   No pseudopotential on this center.
    6          7
                                   No pseudopotential on this center.
    7          6
                                   No pseudopotential on this center.
    8          6
                                   No pseudopotential on this center.
    9          1
                                   No pseudopotential on this center.
   10          7
                                   No pseudopotential on this center.
   11          1
                                   No pseudopotential on this center.
   12          6
                                   No pseudopotential on this center.
   13          1
                                   No pseudopotential on this center.
   14          6
                                   No pseudopotential on this center.
   15          1
                                   No pseudopotential on this center.
   16          6
                                   No pseudopotential on this center.
   17          1
                                   No pseudopotential on this center.
   18          1
                                   No pseudopotential on this center.
   19          7
                                   No pseudopotential on this center.
   20          6
                                   No pseudopotential on this center.
   21          6
                                   No pseudopotential on this center.
   22          1
                                   No pseudopotential on this center.
   23          7
                                   No pseudopotential on this center.
   24          1
                                   No pseudopotential on this center.
   25          6
                                   No pseudopotential on this center.
   26          1
                                   No pseudopotential on this center.
   27          6
                                   No pseudopotential on this center.
   28          1
                                   No pseudopotential on this center.
   29          6
                                   No pseudopotential on this center.
   30          1
                                   No pseudopotential on this center.
   31          1
                                   No pseudopotential on this center.
   32          7
                                   No pseudopotential on this center.
   33          6
                                   No pseudopotential on this center.
   34          6
                                   No pseudopotential on this center.
   35          1
                                   No pseudopotential on this center.
   36          7
                                   No pseudopotential on this center.
   37          1
                                   No pseudopotential on this center.
   38          6
                                   No pseudopotential on this center.
   39          1
                                   No pseudopotential on this center.
   40          6
                                   No pseudopotential on this center.
   41          8
                                   No pseudopotential on this center.
   42          8
                                   No pseudopotential on this center.
   43         30           12
                                      F and up 
                                                     1      386.7379660      -18.00000000    0.00000000
                                                     2       72.8587359     -124.35274030    0.00000000
                                                     2       15.9066170      -30.66018220    0.00000000
                                                     2        4.3502340      -10.63589890    0.00000000
                                                     2        1.2842199       -0.76836230    0.00000000
                                      S - F
                                                     0       19.0867858        3.00000000    0.00000000
                                                     1        5.0231080       22.52342250    0.00000000
                                                     2        1.2701744       48.44659420    0.00000000
                                                     2        1.0671287      -44.55601190    0.00000000
                                                     2        0.9264190       12.99839580    0.00000000
                                      P - F
                                                     0       43.4927750        5.00000000    0.00000000
                                                     1       20.8692669       20.74355890    0.00000000
                                                     2       21.7118378       90.30271580    0.00000000
                                                     2        6.3616915       74.66103160    0.00000000
                                                     2        1.2291195        9.88944240    0.00000000
                                      D - F
                                                     2       13.5851800       -4.84903590    0.00000000
                                                     2        9.8373050        3.69133790    0.00000000
                                                     2        0.8373113       -0.50373190    0.00000000
   44          8
                                   No pseudopotential on this center.
   45          1
                                   No pseudopotential on this center.
   46          1
                                   No pseudopotential on this center.
   47          8
                                   No pseudopotential on this center.
   48          1
                                   No pseudopotential on this center.
   49          1
                                   No pseudopotential on this center.
   50          8
                                   No pseudopotential on this center.
   51          1
                                   No pseudopotential on this center.
   52          1
                                   No pseudopotential on this center.
   53          1
                                   No pseudopotential on this center.
   54          1
                                   No pseudopotential on this center.
   55          1
                                   No pseudopotential on this center.
   56          1
                                   No pseudopotential on this center.
   57          1
                                   No pseudopotential on this center.
   58          6
                                   No pseudopotential on this center.
   59          6
                                   No pseudopotential on this center.
   60          6
                                   No pseudopotential on this center.
   61          6
                                   No pseudopotential on this center.
   62          6
                                   No pseudopotential on this center.
   63          6
                                   No pseudopotential on this center.
   64          1
                                   No pseudopotential on this center.
   65          1
                                   No pseudopotential on this center.
   66          1
                                   No pseudopotential on this center.
   67          8
                                   No pseudopotential on this center.
   68          6
                                   No pseudopotential on this center.
   69          8
                                   No pseudopotential on this center.
   70          6
                                   No pseudopotential on this center.
   71          1
                                   No pseudopotential on this center.
   72          1
                                   No pseudopotential on this center.
   73          1
                                   No pseudopotential on this center.
   74          6
                                   No pseudopotential on this center.
   75          6
                                   No pseudopotential on this center.
   76          1
                                   No pseudopotential on this center.
   77          6
                                   No pseudopotential on this center.
   78          6
                                   No pseudopotential on this center.
   79          1
                                   No pseudopotential on this center.
   80          1
                                   No pseudopotential on this center.
   81          1
                                   No pseudopotential on this center.
   82          8
                                   No pseudopotential on this center.
   83          8
                                   No pseudopotential on this center.
   84          8
                                   No pseudopotential on this center.
   85          1
                                   No pseudopotential on this center.
   86          1
                                   No pseudopotential on this center.
   87          8
                                   No pseudopotential on this center.
   88          1
                                   No pseudopotential on this center.
   89          1
                                   No pseudopotential on this center.
 ======================================================================================================
 There are  1178 symmetry adapted cartesian basis functions of A   symmetry.
 There are  1131 symmetry adapted basis functions of A   symmetry.
  1131 basis functions,  1958 primitive gaussians,  1178 cartesian basis functions
   176 alpha electrons      176 beta electrons
       nuclear repulsion energy      6854.0229109457 Hartrees.
 NAtoms=   89 NActive=   89 NUniq=   89 SFac= 1.00D+00 NAtFMM=   60 NAOKFM=T Big=T
 Integral buffers will be    131072 words long.
 Raffenetti 2 integral format.
 Two-electron integral symmetry is turned on.
 Force inversion solution in PCM.
 ------------------------------------------------------------------------------
 Polarizable Continuum Model (PCM)
 =================================
 Model                : PCM.
 Atomic radii         : UFF (Universal Force Field).
 Polarization charges : Total charges.
 Charge compensation  : None.
 Solution method      : Matrix inversion.
 Cavity type          : Scaled VdW (van der Waals Surface) (Alpha=1.100).
 Cavity algorithm     : GePol (No added spheres)
                        Default sphere list used, NSphG=   89.
                        Lebedev-Laikov grids with approx.  5.0 points / Ang**2.
                        Smoothing algorithm: York/Karplus (Gamma=1.0000).
                        Polarization charges: spherical gaussians, with
                                              point-specific exponents (IZeta= 3).
                        Self-potential: point-specific (ISelfS= 7).
                        Self-field    : sphere-specific E.n sum rule (ISelfD= 2).
 1st derivatives      : Analytical E(r).r(x)/FMM algorithm (CHGder, D1EAlg=3).
                        Cavity 1st derivative terms included.
 2nd derivatives      : Analytical E(r).r(xy)/FMM algorithm (CHGder, D2EAlg=3).
                        Cavity 2nd derivative terms included.
 Solvent              : Water, Eps=  78.355300 Eps(inf)=   1.777849
 ------------------------------------------------------------------------------
 One-electron integrals computed using PRISM.
   1 Symmetry operations used in ECPInt.
 ECPInt:  NShTT=  170236 NPrTT=  582707 LenC2=  131410 LenP2D=  282001.
 LDataN:  DoStor=T MaxTD1= 5 Len=  102
 NBasis=  1131 RedAO= T EigKep=  5.80D-06  NBF=  1131
 NBsUse=  1131 1.00D-06 EigRej= -1.00D+00 NBFU=  1131
 ExpMin= 3.51D-02 ExpMax= 2.70D+04 ExpMxC= 9.22D+02 IAcc=3 IRadAn=         5 AccDes= 0.00D+00
 Harris functional with IExCor= 1009 and IRadAn=       5 diagonalized for initial guess.
 HarFok:  IExCor= 1009 AccDes= 0.00D+00 IRadAn=         5 IDoV= 1 UseB2=F ITyADJ=14
 ICtDFT=  3500011 ScaDFX=  1.000000  1.000000  1.000000  1.000000
 FoFCou: FMM=F IPFlag=           0 FMFlag=      100000 FMFlg1=        2001
         NFxFlg=           0 DoJE=T BraDBF=F KetDBF=T FulRan=T
         wScrn=  0.000000 ICntrl=       500 IOpCl=  0 I1Cent=   200000004 NGrid=           0
         NMat0=    1 NMatS0=      1 NMatT0=    0 NMatD0=    1 NMtDS0=    0 NMtDT0=    0
 Petite list used in FoFCou.
 Requested convergence on RMS density matrix=1.00D-08 within 128 cycles.
 Requested convergence on MAX density matrix=1.00D-06.
 Requested convergence on             energy=1.00D-06.
 No special actions if energy rises.
 Inv3:  Mode=1 IEnd=    95631948.
 Iteration    1 A*A^-1 deviation from unit magnitude is 4.22D-15 for   5169.
 Iteration    1 A*A^-1 deviation from orthogonality  is 2.00D-15 for   3711   2412.
 Iteration    1 A^-1*A deviation from unit magnitude is 4.00D-15 for   5169.
 Iteration    1 A^-1*A deviation from orthogonality  is 2.46D-15 for   4731   3641.
 Error on total polarization charges =  0.01969
 SCF Done:  E(RM062X) =  -2314.29857329     A.U. after   15 cycles
            NFock= 15  Conv=0.22D-08     -V/T= 1.9835
 DoSCS=F DFT=T ScalE2(SS,OS)=  1.000000  1.000000
 Range of M.O.s used for correlation:     1  1131
 NBasis=  1131 NAE=   176 NBE=   176 NFC=     0 NFV=     0
 NROrb=   1131 NOA=   176 NOB=   176 NVA=   955 NVB=   955

 **** Warning!!: The largest alpha MO coefficient is  0.47247695D+02

   1 Symmetry operations used in ECPInt.
 ECPInt:  NShTT=  170236 NPrTT=  582707 LenC2=  131410 LenP2D=  282001.
 LDataN:  DoStor=T MaxTD1= 6 Len=  172
 Number of processors reduced to   6 by ecpmxn.
 Symmetrizing basis deriv contribution to polar:
 IMax=3 JMax=2 DiffMx= 0.00D+00
 G2DrvN: will do    90 centers at a time, making    1 passes.
 Calling FoFCou, ICntrl=  3107 FMM=T I1Cent=   0 AccDes= 0.00D+00.
 NEqPCM:  Using equilibrium solvation (IEInf=0, Eps=  78.3553, EpsInf=   1.7778)
 G2PCM: DoFxE=T DoFxN=T DoGrad=T DoDP/DQ/DG/TGxP=FFFF NFrqRd=   0 IEInf=0 SqF1=F DoCFld=F IF1Alg=4.
 End of G2Drv F.D. properties file   721 does not exist.
 End of G2Drv F.D. properties file   722 does not exist.
 End of G2Drv F.D. properties file   788 does not exist.
          IDoAtm=11111111111111111111111111111111111111111111111111
          IDoAtm=111111111111111111111111111111111111111
 NEqPCM:  Using equilibrium solvation (IEInf=0, Eps=  78.3553, EpsInf=   1.7778)
          Differentiating once with respect to electric field.
                with respect to dipole field.
          Differentiating once with respect to nuclear coordinates.
 CalDSu exits because no D1Ps are significant.
          There are   270 degrees of freedom in the 1st order CPHF.  IDoFFX=6 NUNeed=     3.
    270 vectors produced by pass  0 Test12= 1.68D-13 1.00D-09 XBig12= 2.44D+02 6.30D+00.
 AX will form    72 AO Fock derivatives at one time.
    267 vectors produced by pass  1 Test12= 1.68D-13 1.00D-09 XBig12= 2.45D+01 6.79D-01.
    267 vectors produced by pass  2 Test12= 1.68D-13 1.00D-09 XBig12= 4.19D-01 7.87D-02.
    267 vectors produced by pass  3 Test12= 1.68D-13 1.00D-09 XBig12= 3.77D-03 4.59D-03.
    267 vectors produced by pass  4 Test12= 1.68D-13 1.00D-09 XBig12= 2.71D-05 3.38D-04.
    267 vectors produced by pass  5 Test12= 1.68D-13 1.00D-09 XBig12= 1.39D-07 1.81D-05.
    194 vectors produced by pass  6 Test12= 1.68D-13 1.00D-09 XBig12= 5.64D-10 8.01D-07.
     36 vectors produced by pass  7 Test12= 1.68D-13 1.00D-09 XBig12= 2.12D-12 6.44D-08.
      6 vectors produced by pass  8 Test12= 1.68D-13 1.00D-09 XBig12= 1.21D-14 5.58D-09.
      4 vectors produced by pass  9 Test12= 1.68D-13 1.00D-09 XBig12= 3.43D-15 2.43D-09.
      4 vectors produced by pass 10 Test12= 1.68D-13 1.00D-09 XBig12= 8.52D-15 3.26D-09.
      2 vectors produced by pass 11 Test12= 1.68D-13 1.00D-09 XBig12= 2.17D-15 1.96D-09.
 InvSVY:  IOpt=1 It=  1 EMax= 2.84D-14
 Solved reduced A of dimension  1851 with   270 vectors.
 Isotropic polarizability for W=    0.000000      560.55 Bohr**3.
 End of Minotr F.D. properties file   721 does not exist.
 End of Minotr F.D. properties file   722 does not exist.
 End of Minotr F.D. properties file   788 does not exist.

 **********************************************************************

            Population analysis using the SCF density.

 **********************************************************************

 Orbital symmetries:
       Occupied  (A) (A) (A) (A) (A) (A) (A) (A) (A) (A) (A) (A)
                 (A) (A) (A) (A) (A) (A) (A) (A) (A) (A) (A) (A)
                 (A) (A) (A) (A) (A) (A) (A) (A) (A) (A) (A) (A)
                 (A) (A) (A) (A) (A) (A) (A) (A) (A) (A) (A) (A)
                 (A) (A) (A) (A) (A) (A) (A) (A) (A) (A) (A) (A)
                 (A) (A) (A) (A) (A) (A) (A) (A) (A) (A) (A) (A)
                 (A) (A) (A) (A) (A) (A) (A) (A) (A) (A) (A) (A)
                 (A) (A) (A) (A) (A) (A) (A) (A) (A) (A) (A) (A)
                 (A) (A) (A) (A) (A) (A) (A) (A) (A) (A) (A) (A)
                 (A) (A) (A) (A) (A) (A) (A) (A) (A) (A) (A) (A)
                 (A) (A) (A) (A) (A) (A) (A) (A) (A) (A) (A) (A)
                 (A) (A) (A) (A) (A) (A) (A) (A) (A) (A) (A) (A)
                 (A) (A) (A) (A) (A) (A) (A) (A) (A) (A) (A) (A)
                 (A) (A) (A) (A) (A) (A) (A) (A) (A) (A) (A) (A)
                 (A) (A) (A) (A) (A) (A) (A) (A)
       Virtual   (A) (A) (A) (A) (A) (A) (A) (A) (A) (A) (A) (A)
                 (A) (A) (A) (A) (A) (A) (A) (A) (A) (A) (A) (A)
                 (A) (A) (A) (A) (A) (A) (A) (A) (A) (A) (A) (A)
                 (A) (A) (A) (A) (A) (A) (A) (A) (A) (A) (A) (A)
                 (A) (A) (A) (A) (A) (A) (A) (A) (A) (A) (A) (A)
                 (A) (A) (A) (A) (A) (A) (A) (A) (A) (A) (A) (A)
                 (A) (A) (A) (A) (A) (A) (A) (A) (A) (A) (A) (A)
                 (A) (A) (A) (A) (A) (A) (A) (A) (A) (A) (A) (A)
                 (A) (A) (A) (A) (A) (A) (A) (A) (A) (A) (A) (A)
                 (A) (A) (A) (A) (A) (A) (A) (A) (A) (A) (A) (A)
                 (A) (A) (A) (A) (A) (A) (A) (A) (A) (A) (A) (A)
                 (A) (A) (A) (A) (A) (A) (A) (A) (A) (A) (A) (A)
                 (A) (A) (A) (A) (A) (A) (A) (A) (A) (A) (A) (A)
                 (A) (A) (A) (A) (A) (A) (A) (A) (A) (A) (A) (A)
                 (A) (A) (A) (A) (A) (A) (A) (A) (A) (A) (A) (A)
                 (A) (A) (A) (A) (A) (A) (A) (A) (A) (A) (A) (A)
                 (A) (A) (A) (A) (A) (A) (A) (A) (A) (A) (A) (A)
                 (A) (A) (A) (A) (A) (A) (A) (A) (A) (A) (A) (A)
                 (A) (A) (A) (A) (A) (A) (A) (A) (A) (A) (A) (A)
                 (A) (A) (A) (A) (A) (A) (A) (A) (A) (A) (A) (A)
                 (A) (A) (A) (A) (A) (A) (A) (A) (A) (A) (A) (A)
                 (A) (A) (A) (A) (A) (A) (A) (A) (A) (A) (A) (A)
                 (A) (A) (A) (A) (A) (A) (A) (A) (A) (A) (A) (A)
                 (A) (A) (A) (A) (A) (A) (A) (A) (A) (A) (A) (A)
                 (A) (A) (A) (A) (A) (A) (A) (A) (A) (A) (A) (A)
                 (A) (A) (A) (A) (A) (A) (A) (A) (A) (A) (A) (A)
                 (A) (A) (A) (A) (A) (A) (A) (A) (A) (A) (A) (A)
                 (A) (A) (A) (A) (A) (A) (A) (A) (A) (A) (A) (A)
                 (A) (A) (A) (A) (A) (A) (A) (A) (A) (A) (A) (A)
                 (A) (A) (A) (A) (A) (A) (A) (A) (A) (A) (A) (A)
                 (A) (A) (A) (A) (A) (A) (A) (A) (A) (A) (A) (A)
                 (A) (A) (A) (A) (A) (A) (A) (A) (A) (A) (A) (A)
                 (A) (A) (A) (A) (A) (A) (A) (A) (A) (A) (A) (A)
                 (A) (A) (A) (A) (A) (A) (A) (A) (A) (A) (A) (A)
                 (A) (A) (A) (A) (A) (A) (A) (A) (A) (A) (A) (A)
[...]
 Alpha virt. eigenvalues --    2.86301   2.86580   2.86819   2.87593   2.88015
 Alpha virt. eigenvalues --    2.88162   2.88873   2.89155   2.89757   2.89894
 Alpha virt. eigenvalues --    2.90150   2.90348   2.90599   2.90940   2.91351
 Alpha virt. eigenvalues --    2.91810   2.92055   2.92446   2.92511   2.92738
 Alpha virt. eigenvalues --    2.93209   2.93469   2.93624   2.94110   2.94427
 Alpha virt. eigenvalues --    2.94758   2.94952   2.95201   2.95716   2.95826
 Alpha virt. eigenvalues --    2.96156   2.96613   2.96630   2.97378   2.97561
 Alpha virt. eigenvalues --    2.98066   2.98429   2.98890   2.99563   2.99877
 Alpha virt. eigenvalues --    3.00109   3.00252   3.00607   3.00845   3.01150
 Alpha virt. eigenvalues --    3.01882   3.02044   3.02422   3.02773   3.02847
 Alpha virt. eigenvalues --    3.03527   3.04197   3.04546   3.05107   3.05217
 Alpha virt. eigenvalues --    3.05595   3.05916   3.06320   3.06423   3.06634
 Alpha virt. eigenvalues --    3.07134   3.07424   3.07585   3.07788   3.08331
 Alpha virt. eigenvalues --    3.08644   3.08846   3.09483   3.09501   3.09662
 Alpha virt. eigenvalues --    3.10051   3.10440   3.10991   3.11314   3.11658
 Alpha virt. eigenvalues --    3.12152   3.12551   3.12908   3.12998   3.13518
 Alpha virt. eigenvalues --    3.13907   3.14211   3.14389   3.14974   3.15005
 Alpha virt. eigenvalues --    3.15443   3.15737   3.16235   3.16469   3.16687
 Alpha virt. eigenvalues --    3.17117   3.17320   3.17694   3.18010   3.18309
 Alpha virt. eigenvalues --    3.18739   3.18987   3.19425   3.19939   3.20465
 Alpha virt. eigenvalues --    3.20648   3.20990   3.21237   3.21821   3.22181
 Alpha virt. eigenvalues --    3.22371   3.22897   3.23086   3.23542   3.23613
 Alpha virt. eigenvalues --    3.24337   3.24637   3.24936   3.25057   3.25598
 Alpha virt. eigenvalues --    3.26002   3.26253   3.26514   3.26986   3.27710
 Alpha virt. eigenvalues --    3.28014   3.28297   3.28680   3.29279   3.29410
 Alpha virt. eigenvalues --    3.29773   3.30109   3.30402   3.30750   3.30935
 Alpha virt. eigenvalues --    3.31210   3.31372   3.31696   3.31962   3.32441
 Alpha virt. eigenvalues --    3.32846   3.33003   3.33026   3.33722   3.33928
 Alpha virt. eigenvalues --    3.34164   3.34659   3.34712   3.35142   3.35292
 Alpha virt. eigenvalues --    3.35387   3.35611   3.35862   3.36582   3.36704
 Alpha virt. eigenvalues --    3.37219   3.37318   3.37849   3.38157   3.38402
 Alpha virt. eigenvalues --    3.38841   3.39040   3.39345   3.39811   3.40406
 Alpha virt. eigenvalues --    3.40630   3.41389   3.41595   3.41974   3.42082
 Alpha virt. eigenvalues --    3.42362   3.42384   3.42863   3.43641   3.44263
 Alpha virt. eigenvalues --    3.44718   3.44922   3.45554   3.45623   3.45920
 Alpha virt. eigenvalues --    3.46223   3.46398   3.46616   3.46872   3.47183
 Alpha virt. eigenvalues --    3.47473   3.47797   3.47973   3.48317   3.48483
 Alpha virt. eigenvalues --    3.48933   3.49342   3.50074   3.50398   3.50666
 Alpha virt. eigenvalues --    3.50950   3.51109   3.51815   3.52526   3.52742
 Alpha virt. eigenvalues --    3.52982   3.54105   3.54560   3.54799   3.55017
 Alpha virt. eigenvalues --    3.55452   3.55867   3.56393   3.56721   3.57124
 Alpha virt. eigenvalues --    3.57751   3.58189   3.58407   3.58911   3.59767
 Alpha virt. eigenvalues --    3.60100   3.60280   3.60974   3.61450   3.61700
 Alpha virt. eigenvalues --    3.61944   3.62729   3.63221   3.63606   3.63954
 Alpha virt. eigenvalues --    3.64452   3.65065   3.65352   3.65565   3.66719
 Alpha virt. eigenvalues --    3.66889   3.67131   3.68029   3.68613   3.69021
 Alpha virt. eigenvalues --    3.69285   3.69937   3.70523   3.70979   3.71376
 Alpha virt. eigenvalues --    3.71766   3.72360   3.72595   3.72774   3.74001
 Alpha virt. eigenvalues --    3.74341   3.75259   3.75742   3.76764   3.77467
 Alpha virt. eigenvalues --    3.77894   3.78482   3.78830   3.79025   3.79345
 Alpha virt. eigenvalues --    3.79583   3.80154   3.80635   3.80895   3.81525
 Alpha virt. eigenvalues --    3.81780   3.82152   3.82879   3.84137   3.84260
 Alpha virt. eigenvalues --    3.85897   3.86407   3.86573   3.87114   3.87968
 Alpha virt. eigenvalues --    3.89134   3.89923   3.90109   3.90854   3.91167
 Alpha virt. eigenvalues --    3.92161   3.92478   3.92738   3.93053   3.95388
 Alpha virt. eigenvalues --    3.95467   3.96485   3.97098   3.97685   3.97822
 Alpha virt. eigenvalues --    3.98290   3.98516   3.98998   3.99278   3.99435
 Alpha virt. eigenvalues --    3.99860   3.99999   4.01043   4.01583   4.02324
 Alpha virt. eigenvalues --    4.02685   4.04179   4.04511   4.05658   4.05818
 Alpha virt. eigenvalues --    4.05979   4.07540   4.08073   4.08452   4.10187
 Alpha virt. eigenvalues --    4.11693   4.12103   4.12934   4.13443   4.14040
 Alpha virt. eigenvalues --    4.14890   4.15857   4.16058   4.16399   4.16779
 Alpha virt. eigenvalues --    4.17625   4.18350   4.18861   4.19452   4.21422
 Alpha virt. eigenvalues --    4.22021   4.22654   4.23134   4.23430   4.23864
 Alpha virt. eigenvalues --    4.25140   4.26214   4.26336   4.27459   4.27724
 Alpha virt. eigenvalues --    4.29678   4.30245   4.30732   4.31404   4.31832
 Alpha virt. eigenvalues --    4.32442   4.33079   4.33976   4.34980   4.36384
 Alpha virt. eigenvalues --    4.37800   4.38024   4.38773   4.39322   4.39875
 Alpha virt. eigenvalues --    4.41737   4.42049   4.42596   4.42857   4.43107
 Alpha virt. eigenvalues --    4.43724   4.45585   4.45888   4.46097   4.47022
 Alpha virt. eigenvalues --    4.47911   4.48482   4.48886   4.49821   4.50122
 Alpha virt. eigenvalues --    4.50755   4.51278   4.52939   4.54230   4.56176
 Alpha virt. eigenvalues --    4.56705   4.57956   4.59439   4.60008   4.60722
 Alpha virt. eigenvalues --    4.61342   4.62019   4.62349   4.62712   4.63153
 Alpha virt. eigenvalues --    4.64358   4.64791   4.65087   4.65514   4.65717
 Alpha virt. eigenvalues --    4.65934   4.66883   4.67429   4.68286   4.68775
 Alpha virt. eigenvalues --    4.68934   4.69498   4.70221   4.70684   4.72870
 Alpha virt. eigenvalues --    4.73431   4.75229   4.76433   4.77414   4.77438
 Alpha virt. eigenvalues --    4.78558   4.78853   4.79815   4.80369   4.81681
 Alpha virt. eigenvalues --    4.82590   4.83441   4.83577   4.84397   4.84719
 Alpha virt. eigenvalues --    4.85452   4.86064   4.87122   4.87552   4.88055
 Alpha virt. eigenvalues --    4.88835   4.88865   4.89801   4.90096   4.91305
 Alpha virt. eigenvalues --    4.91944   4.92483   4.93164   4.94361   4.98387
 Alpha virt. eigenvalues --    4.98464   4.99372   4.99878   5.00792   5.01333
 Alpha virt. eigenvalues --    5.02354   5.03354   5.03800   5.04838   5.05711
 Alpha virt. eigenvalues --    5.06660   5.10149   5.10645   5.11288   5.12144
 Alpha virt. eigenvalues --    5.12449   5.12920   5.13870   5.14336   5.15242
 Alpha virt. eigenvalues --    5.16345   5.18243   5.19044   5.19529   5.20237
 Alpha virt. eigenvalues --    5.20999   5.21906   5.22280   5.22734   5.22901
 Alpha virt. eigenvalues --    5.23314   5.23648   5.24108   5.24415   5.25361
 Alpha virt. eigenvalues --    5.26348   5.26435   5.27542   5.28274   5.28784
 Alpha virt. eigenvalues --    5.29228   5.30151   5.30347   5.31618   5.32744
 Alpha virt. eigenvalues --    5.32903   5.34100   5.34650   5.35008   5.35311
 Alpha virt. eigenvalues --    5.36068   5.37142   5.37759   5.39013   5.39942
 Alpha virt. eigenvalues --    5.40241   5.40478   5.40706   5.40787   5.41213
 Alpha virt. eigenvalues --    5.41589   5.41745   5.42371   5.42985   5.43480
 Alpha virt. eigenvalues --    5.43708   5.44548   5.44768   5.45168   5.45621
 Alpha virt. eigenvalues --    5.46144   5.46588   5.46904   5.48076   5.48269
 Alpha virt. eigenvalues --    5.49150   5.49692   5.50102   5.50692   5.51529
 Alpha virt. eigenvalues --    5.51910   5.52305   5.54040   5.54337   5.55677
 Alpha virt. eigenvalues --    5.57063   5.57853   5.58033   5.58724   5.59379
 Alpha virt. eigenvalues --    5.60637   5.61043   5.62149   5.62595   5.63892
 Alpha virt. eigenvalues --    5.65041   5.68299   5.77767   5.78345   5.79647
 Alpha virt. eigenvalues --    5.84606   5.84870   5.85518   5.85900   5.86613
 Alpha virt. eigenvalues --    5.88566   5.90514   5.94522   5.96784   5.98481
 Alpha virt. eigenvalues --    5.99540   6.00242   6.00427   6.01083   6.01468
 Alpha virt. eigenvalues --    6.01675   6.02932   6.03510   6.05403   6.06745
 Alpha virt. eigenvalues --    6.10099   6.14421   6.15853   6.16497   6.16980
 Alpha virt. eigenvalues --    6.19989   6.20929   6.22574   6.24602   6.25779
 Alpha virt. eigenvalues --    6.28729   6.29602   6.32322   6.32889   6.35635
 Alpha virt. eigenvalues --    6.36550   6.36706   6.37023   6.38153   6.38330
 Alpha virt. eigenvalues --    6.39030   6.41726   6.43409   6.44226   6.44972
 Alpha virt. eigenvalues --    6.46103   6.46419   6.48271   6.49303   6.50027
 Alpha virt. eigenvalues --    6.50462   6.53745   6.58057   6.60723   6.62316
 Alpha virt. eigenvalues --    6.64088   6.66841   6.68802   6.69283   6.73604
 Alpha virt. eigenvalues --    6.76164   6.78340   6.79288   6.81883   6.82701
 Alpha virt. eigenvalues --    6.84209   6.84891   6.85984   6.86941   6.88096
 Alpha virt. eigenvalues --    6.92308   6.95413   6.95694   6.97902   6.98267
 Alpha virt. eigenvalues --    7.00769   7.02674   7.03124   7.04842   7.06990
 Alpha virt. eigenvalues --    7.07390   7.08285   7.08646   7.10113   7.11956
 Alpha virt. eigenvalues --    7.14721   7.16377   7.19088   7.26979   7.32088
 Alpha virt. eigenvalues --    7.33662   7.35156   7.39266   7.44498   7.46989
 Alpha virt. eigenvalues --   22.45097  22.47340  22.56653  22.58758  22.61341
 Alpha virt. eigenvalues --   22.63215  22.66324  22.67103  22.70578  22.76978
 Alpha virt. eigenvalues --   22.78392  22.78784  22.83689  22.90167  22.95797
 Alpha virt. eigenvalues --   23.01884  23.02373  23.02775  23.06344  23.07946
 Alpha virt. eigenvalues --   23.17491  23.25763  23.28374  23.29665  23.30155
 Alpha virt. eigenvalues --   23.44846  23.51502  23.67515  32.39951  32.41548
 Alpha virt. eigenvalues --   32.52310  32.66790  32.71991  32.76749  43.61811
 Alpha virt. eigenvalues --   43.73299  43.84858  43.88935  44.05993  44.08795
 Alpha virt. eigenvalues --   44.18892  44.34908  44.49577  44.59590  44.68709
 Alpha virt. eigenvalues --   69.29758  69.33794  69.40121  89.03650
          Condensed to atoms (all electrons):
 Mulliken charges:
               1
     1  C   -0.480745
     2  H    0.164016
     3  C   -0.314351
     4  H    0.175368
     5  H    0.170977
     6  N   -0.308305
     7  C    0.041239
     8  C    0.133396
     9  H    0.101377
    10  N   -0.237780
    11  H    0.329211
    12  C   -0.112368
    13  H    0.215211
    14  C   -0.543132
    15  H    0.176888
    16  C   -0.166593
    17  H    0.184286
    18  H    0.063409
    19  N   -0.300415
    20  C    0.050890
    21  C    0.066353
    22  H    0.209562
    23  N   -0.247671
    24  H    0.318021
    25  C   -0.111316
    26  H    0.225017
    27  C   -0.330621
    28  H    0.182915
    29  C   -0.335602
    30  H    0.090035
    31  H    0.207956
    32  N   -0.308082
    33  C    0.073576
    34  C    0.076416
    35  H    0.232156
    36  N   -0.242279
    37  H    0.321574
    38  C   -0.070452
    39  H    0.216950
    40  C    0.422242
    41  O   -0.476019
    42  O   -0.458133
    43  Zn   0.937592
    44  O   -0.726757
    45  H    0.392686
    46  H    0.404570
    47  O   -0.536488
    48  H    0.330058
    49  H    0.422538
    50  O   -0.836779
    51  H    0.420460
    52  H    0.399039
    53  H    0.164196
    54  H    0.162989
    55  H    0.165433
    56  H    0.180241
    57  H    0.210745
    58  C    0.272727
    59  C   -0.281301
    60  C   -0.233343
    61  C    0.089129
    62  C    0.194771
    63  C   -0.213987
    64  H    0.184917
    65  H    0.207690
    66  H    0.210063
    67  O   -0.447459
    68  C    0.518270
    69  O   -0.739505
    70  C   -0.532023
    71  H    0.167211
    72  H    0.193041
    73  H    0.174828
    74  C    0.362040
    75  C   -0.224726
    76  H    0.191829
    77  C    0.060184
    78  C   -0.547607
    79  H    0.199746
    80  H    0.197085
    81  H    0.173451
    82  O   -0.458162
    83  O   -0.247019
    84  O   -0.791964
    85  H    0.412880
    86  H    0.392250
    87  O   -0.772722
    88  H    0.397052
    89  H    0.394951
 Sum of Mulliken charges =   1.00000
 Mulliken charges with hydrogens summed into heavy atoms:
               1
     1  C    0.010457
     3  C    0.031994
     6  N   -0.308305
     7  C    0.041239
     8  C    0.234773
    10  N    0.091431
    12  C    0.102843
    14  C   -0.020570
    16  C    0.081102
    19  N   -0.300415
    20  C    0.050890
    21  C    0.275915
    23  N    0.070350
    25  C    0.113701
    27  C    0.063038
    29  C   -0.037611
    32  N   -0.308082
    33  C    0.073576
    34  C    0.308572
    36  N    0.079294
    38  C    0.146498
    40  C    0.422242
    41  O   -0.476019
    42  O   -0.037674
    43  Zn   0.937592
    44  O    0.070499
    47  O   -0.206429
    50  O   -0.015202
    58  C    0.272727
    59  C   -0.096385
    60  C   -0.025653
    61  C    0.089129
    62  C    0.194771
    63  C   -0.003924
    67  O   -0.447459
    68  C    0.518270
    69  O   -0.739505
    70  C    0.003057
    74  C    0.362040
    75  C   -0.032896
    77  C    0.060184
    78  C    0.022675
    82  O   -0.458162
    83  O   -0.247019
    84  O    0.013167
    87  O    0.019282
 Electronic spatial extent (au):  <R**2>=          25582.4926
 Charge=              1.0000 electrons
 Dipole moment (field-independent basis, Debye):
    X=             12.6771    Y=             -1.3092    Z=              0.3470  Tot=             12.7492
 Quadrupole moment (field-independent basis, Debye-Ang):
   XX=           -218.0401   YY=           -233.7258   ZZ=           -245.1818
   XY=             57.3120   XZ=            -24.9487   YZ=             -1.9514
 Traceless Quadrupole moment (field-independent basis, Debye-Ang):
   XX=             14.2758   YY=             -1.4099   ZZ=            -12.8659
   XY=             57.3120   XZ=            -24.9487   YZ=             -1.9514
 Octapole moment (field-independent basis, Debye-Ang**2):
  XXX=            444.6109  YYY=            -91.7386  ZZZ=            156.9714  XYY=             50.4243
  XXY=           -141.6600  XXZ=           -261.6177  XZZ=             81.2383  YZZ=             15.6239
  YYZ=              3.7732  XYZ=             98.6344
 Hexadecapole moment (field-independent basis, Debye-Ang**3):
 XXXX=         -16175.7989 YYYY=          -7704.7346 ZZZZ=          -4846.9049 XXXY=           1993.2730
 XXXZ=           -963.6138 YYYX=            111.0732 YYYZ=             34.5305 ZZZX=            -29.9697
 ZZZY=           -165.1269 XXYY=          -4099.8876 XXZZ=          -4172.9215 YYZZ=          -2779.8363
 XXYZ=           -106.9659 YYXZ=            -39.8729 ZZXY=            114.3038
 N-N= 7.211016874294D+03 E-N=-2.020287713761D+04  KE= 2.392176608762D+03
 1\1\GINC-GU23\SP\RM062X\GenECP\C28H43N6O11Zn1(1+)\YYQ\10-Aug-2024\0\\#
  geom(allcheck,modredundant) genecp scrf(SMD) m062x\\Title Card Requir
 ed\\1,1\C,0,2.8343701551,5.1973641996,1.4358222437\H,0,3.5497822473,5.
 3287358635,2.2467492052\C,0,2.2709156351,3.7755150095,1.4461951946\H,0
 ,1.7833564311,3.5770927503,2.4055605649\H,0,3.0829799354,3.0497027633,
 1.370437057\N,0,1.0726272449,2.2789908423,-0.2071430152\C,0,1.29037897
 43,3.5287911826,0.3427757584\C,0,0.110596267,2.420287305,-1.1065695689
 \H,0,-0.3099754014,1.6302511996,-1.7086160434\N,0,-0.2941920016,3.6901
 121514,-1.1670270676\H,0,-1.0331720156,4.006404033,-1.8057456457\C,0,0
 .4407439372,4.4129983215,-0.2618756363\H,0,0.2981749877,5.4700778899,-
 0.1258314919\C,0,-2.6673974949,1.6230118455,2.6735364081\H,0,-2.508724
 8625,2.2162413802,3.5756090744\C,0,-1.3481860087,1.3967438297,1.926507
 8616\H,0,-0.9452846833,2.3577308309,1.5915826492\H,0,-1.5261852554,0.8
 023808903,1.0243632417\N,0,0.890366628,0.2229612957,2.25452404\C,0,-0.
 3186154278,0.6925149863,2.7546056597\C,0,1.5246320845,-0.3582928606,3.
 2577160456\H,0,2.4819389748,-0.8481146308,3.1950921171\N,0,0.792257112
 6,-0.2849131632,4.3732512292\H,0,1.0562143401,-0.6581082068,5.27286025
 5\C,0,-0.3786771428,0.3738025596,4.0782014338\H,0,-1.1370871933,0.5475
 756075,4.8199380785\C,0,4.2459743398,-3.4398310451,-0.1095106519\H,0,5
 .3185522874,-3.5651823118,-0.237281774\C,0,3.6706507864,-2.4795608642,
 -1.1692552547\H,0,2.5882063977,-2.4125921697,-1.0582199405\H,0,3.85850
 60539,-2.9009258284,-2.1573079507\N,0,3.6210919059,-0.0121020524,-0.53
 32154915\C,0,4.2597237875,-1.1062311462,-1.0992984397\C,0,4.4445217147
 ,1.0161138968,-0.6619033226\H,0,4.2508698415,2.027452231,-0.3457822258
 \N,0,5.5716128719,0.6373194736,-1.2715504621\H,0,6.3506307289,1.241462
 8052,-1.4903726643\C,0,5.4767441766,-0.6990832009,-1.5596286252\H,0,6.
 2610097015,-1.237113185,-2.061909797\C,0,3.992240986,-2.8641566879,1.2
 654074507\O,0,4.8678728023,-2.4739518917,2.0015312647\O,0,2.7178064131
 ,-2.7377890864,1.6255388831\Zn,0,1.7261199106,0.3532142671,0.337270180
 4\O,0,-1.1475936187,-2.0387103157,1.0767307846\H,0,-2.0518821504,-2.27
 52258648,0.8347558721\H,0,-0.6157934468,-2.8498849912,0.9588908598\O,0
 ,0.2689570808,-0.6651211462,-0.7488982527\H,0,-0.3284088972,-1.1537369
 74,-0.1196218606\H,0,0.567352444,-3.2748854904,-0.7798908218\O,0,0.801
 7602028,-3.7210064171,0.1308903986\H,0,2.0594468937,-3.1428491764,0.98
 88597552\H,0,0.7718888366,-4.6763511031,0.0128641044\H,0,3.3383560013,
 5.4061847561,0.4915703919\H,0,2.0406263424,5.9336586116,1.5686945936\H
 ,0,-3.3756444377,2.1500847246,2.0369306461\H,0,-3.1168627784,0.6706876
 89,2.9636720154\H,0,3.7539382378,-4.4102812891,-0.1990946978\C,0,-2.25
 20394872,-1.0807506028,-1.880838157\C,0,-2.7258171984,-2.3981964481,-1
 .8239694837\C,0,-3.8295369581,-2.6888945637,-1.0483448895\C,0,-4.49631
 32511,-1.6883510671,-0.323680217\C,0,-4.0236223785,-0.3793379208,-0.43
 82471873\C,0,-2.90655667,-0.0671335193,-1.1985032713\H,0,-2.2033908381
 ,-3.1660737571,-2.373806282\H,0,-4.1882824214,-3.7084789949,-0.9956760
 851\H,0,-2.5554636413,0.9557662873,-1.2483468072\O,0,-1.1452272997,-0.
 7583094578,-2.6047280711\C,0,0.1822555652,-1.2825711219,-2.0683667364\
 O,0,0.2117148689,-2.5691482885,-2.011311068\C,0,1.1837381913,-0.602599
 3111,-2.9845532663\H,0,2.1899053135,-0.9147269293,-2.7147214874\H,0,0.
 981623139,-0.9282194703,-4.0040694664\H,0,1.1232032439,0.4845841722,-2
 .9350704968\C,0,-5.7046623475,0.4719068067,1.034665906\C,0,-6.20833403
 54,-0.8817499907,1.1670390357\H,0,-7.0647127489,-0.9985295861,1.816204
 5267\C,0,-5.6507407429,-1.9278669984,0.5255939126\C,0,-6.185844087,-3.
 3166099093,0.6720941009\H,0,-6.4935908746,-3.7105526623,-0.2984218351\
 H,0,-5.4152916449,-3.9820341706,1.066063007\H,0,-7.0406630263,-3.33232
 82438,1.3438939753\O,0,-6.1556701091,1.4494063033,1.5802402148\O,0,-4.
 624422733,0.6558073183,0.2133163743\O,0,-2.2293949534,3.795961685,-3.1
 532040467\H,0,-1.994562469,2.9578143523,-3.6007111771\H,0,-3.177388681
 5,3.7627910867,-2.9940258843\O,0,-1.3603190636,1.4460071347,-4.2595641
 52\H,0,-0.7061684871,1.4177158976,-4.964532837\H,0,-1.2623081407,0.618
 0702754,-3.7521932373\\Version=ES64L-G16RevA.03\State=1-A\HF=-2476.222
 8481\RMSD=3.225e-09\Dipole=5.0002921,-0.3861763,0.0868667\Quadrupole=8
 .0611423,1.2608608,-9.322003,43.1529549,-17.9160016,-2.1224241\PG=C01 
 [X(C28H43N6O11Zn1)]\\@


 A politician is a person who can make waves and then
 make you think he's the only one who can save the ship.
 -- Ivern Ball
 Job cpu time:       0 days 13 hours 22 minutes 46.9 seconds.
 Elapsed time:       0 days  0 hours 33 minutes 41.0 seconds.
 File lengths (MBytes):  RWF=   2142 Int=      0 D2E=      0 Chk=    270 Scr=      1
 Normal termination of Gaussian 16 at Sat Aug 10 23:06:54 2024.
