 Entering Gaussian System, Link 0=g16
 Initial command:
 /share/home/dongh_N/wxy/software/g16/l1.exe "/tmp/Gau-176480.inp" -scrdir="/tmp/"
 Entering Link 1 = /share/home/dongh_N/wxy/software/g16/l1.exe PID=    176481.
  
 Copyright (c) 1988,1990,1992,1993,1995,1998,2003,2009,2016,
            Gaussian, Inc.  All Rights Reserved.
  
 This is part of the Gaussian(R) 16 program.  It is based on
 the Gaussian(R) 09 system (copyright 2009, Gaussian, Inc.),
 the Gaussian(R) 03 system (copyright 2003, Gaussian, Inc.),
 the Gaussian(R) 98 system (copyright 1998, Gaussian, Inc.),
 the Gaussian(R) 94 system (copyright 1995, Gaussian, Inc.),
 the Gaussian 92(TM) system (copyright 1992, Gaussian, Inc.),
 the Gaussian 90(TM) system (copyright 1990, Gaussian, Inc.),
 the Gaussian 88(TM) system (copyright 1988, Gaussian, Inc.),
 the Gaussian 86(TM) system (copyright 1986, Carnegie Mellon
 University), and the Gaussian 82(TM) system (copyright 1983,
 Carnegie Mellon University). Gaussian is a federally registered
 trademark of Gaussian, Inc.
  
 This software contains proprietary and confidential information,
 including trade secrets, belonging to Gaussian, Inc.
  
 This software is provided under written license and may be
 used, copied, transmitted, or stored only in accord with that
 written license.
  
 The following legend is applicable only to US Government
 contracts under FAR:
  
                    RESTRICTED RIGHTS LEGEND
  
 Use, reproduction and disclosure by the US Government is
 subject to restrictions as set forth in subparagraphs (a)
 and (c) of the Commercial Computer Software - Restricted
 Rights clause in FAR 52.227-19.
  
 Gaussian, Inc.
 340 Quinnipiac St., Bldg. 40, Wallingford CT 06492
  
  
 ---------------------------------------------------------------
 Warning -- This program may not be used in any manner that
 competes with the business of Gaussian, Inc. or will provide
 assistance to any competitor of Gaussian, Inc.  The licensee
 of this program is prohibited from giving any competitor of
 Gaussian, Inc. access to this program.  By using this program,
 the user acknowledges that Gaussian, Inc. is engaged in the
 business of creating and licensing software in the field of
 computational chemistry and represents and warrants to the
 licensee that it is not a competitor of Gaussian, Inc. and that
 it will not use this program in any manner prohibited above.
 ---------------------------------------------------------------
  

 Cite this work as:
 Gaussian 16, Revision A.03,
 M. J. Frisch, G. W. Trucks, H. B. Schlegel, G. E. Scuseria, 
 M. A. Robb, J. R. Cheeseman, G. Scalmani, V. Barone, 
 G. A. Petersson, H. Nakatsuji, X. Li, M. Caricato, A. V. Marenich, 
 J. Bloino, B. G. Janesko, R. Gomperts, B. Mennucci, H. P. Hratchian, 
 J. V. Ortiz, A. F. Izmaylov, J. L. Sonnenberg, D. Williams-Young, 
 F. Ding, F. Lipparini, F. Egidi, J. Goings, B. Peng, A. Petrone, 
 T. Henderson, D. Ranasinghe, V. G. Zakrzewski, J. Gao, N. Rega, 
 G. Zheng, W. Liang, M. Hada, M. Ehara, K. Toyota, R. Fukuda, 
 J. Hasegawa, M. Ishida, T. Nakajima, Y. Honda, O. Kitao, H. Nakai, 
 T. Vreven, K. Throssell, J. A. Montgomery, Jr., J. E. Peralta, 
 F. Ogliaro, M. J. Bearpark, J. J. Heyd, E. N. Brothers, K. N. Kudin, 
 V. N. Staroverov, T. A. Keith, R. Kobayashi, J. Normand, 
 K. Raghavachari, A. P. Rendell, J. C. Burant, S. S. Iyengar, 
 J. Tomasi, M. Cossi, J. M. Millam, M. Klene, C. Adamo, R. Cammi, 
 J. W. Ochterski, R. L. Martin, K. Morokuma, O. Farkas, 
 J. B. Foresman, and D. J. Fox, Gaussian, Inc., Wallingford CT, 2016.
 
 ******************************************
 Gaussian 16:  ES64L-G16RevA.03 25-Dec-2016
                11-Aug-2024 
 ******************************************
 %chk=14_opt_sp.chk
 %mem=64GB
 %nprocshared=80
 Will use up to   80 processors via shared memory.
 ----------------------------------------------------
 # opt=(modredundant,recalc=6) freq genecp scrf m062x
 ----------------------------------------------------
 1/10=4,18=120,19=15,26=3,38=1,71=6/1,3;
 2/9=110,12=2,17=6,18=5,40=1/2;
 3/5=7,11=2,16=1,17=8,25=1,30=1,70=2201,71=2,74=-55,140=1/1,2,3;
 4//1;
 5/5=2,38=5/2;
 8/6=4,10=90,11=11/1;
 11/6=1,8=1,9=11,15=111,16=1/1,2,10;
 10/6=1/2;
 6/7=2,8=2,9=2,10=2,28=1/1;
 7/10=1,25=1/1,2,3,16;
 1/10=4,18=20,19=15,26=3,71=6/3(3);
 2/9=110/2;
 7/9=1,25=1,44=-1/16;
 99//99;
 2/9=110/2;
 3/5=7,6=1,11=2,16=1,17=8,25=1,30=1,70=2205,71=2,74=-55,82=7,140=1/1,2,3;
 4/5=5,16=3,69=1/1;
 5/5=2,38=5/2;
 8/6=4,10=90,11=11/1;
 11/6=1,8=1,9=11,15=111,16=1/1,2,10;
 10/6=1/2;
 7/10=1,25=1/1,2,3,16;
 1/18=20,19=15,26=3,71=6/3(-8);
 2/9=110/2;
 6/7=2,8=2,9=2,10=2,19=2,28=1/1;
 7/9=1,25=1,44=-1/16;
 99/9=1/99;
 -------------------
 Title Card Required
 -------------------
 Symbolic Z-matrix:
 Charge =  1 Multiplicity = 1
 C                     1.2323    4.46132   3.57367 
 H                     1.87941   4.46163   4.44961 
 C                     1.36493   3.13812   2.81554 
 H                     1.10007   2.30716   3.47691 
 H                     2.41068   2.97695   2.53871 
 N                     0.61995   2.05427   0.64858 
 C                     0.50795   3.0666    1.58741 
 C                    -0.32196   2.2862   -0.26375 
 H                    -0.51721   1.66453  -1.12529 
 N                    -1.02141   3.38031   0.02435 
 H                    -1.82571   3.78171  -0.65122 
 C                    -0.50924   3.89091   1.19027 
 H                    -0.89988   4.78741   1.63972 
 C                    -2.98978  -0.55655   2.31999 
 H                    -3.02803  -0.3869    3.39738 
 C                    -1.60275  -0.22173   1.76445 
 H                    -1.40077   0.84534   1.8942 
 H                    -1.58178  -0.40823   0.68294 
 N                     0.83595  -0.888     2.10636 
 C                    -0.51226  -1.00984   2.42184 
 C                     1.49169  -1.75078   2.86296 
 H                     2.55488  -1.91988   2.84624 
 N                     0.64017  -2.41398   3.64963 
 H                     0.89501  -3.12333   4.32068 
 C                    -0.63217  -1.96211   3.38877 
 H                    -1.49205  -2.3535    3.90157 
 C                     5.31188  -2.09651  -0.82341 
 H                     6.34915  -1.77312  -0.78542 
 C                     4.45778  -1.11528  -1.6501 
 H                     3.42922  -1.47406  -1.67015 
 H                     4.81439  -1.13333  -2.67985 
 N                     3.54879   0.87376  -0.31357 
 C                     4.48828   0.29938  -1.16079 
 C                     3.89694   2.14291  -0.17008 
 H                     3.3649    2.88209   0.40574 
 N                     5.00512   2.40596  -0.86754 
 H                     5.46229   3.30496  -0.92299 
 C                     5.39459   1.25772  -1.50474 
 H                     6.25571   1.21882  -2.14809 
 C                     4.77054  -2.14612   0.58585 
 O                     5.34356  -1.70997   1.55189 
 O                     3.54039  -2.65571   0.72322 
 Zn                    1.78742   0.31888   0.70575 
 O                     0.0103   -2.85878  -0.11181 
 H                    -0.8998   -3.13764  -0.26817 
 H                     0.60323  -3.5454   -0.46636 
 O                     0.77597  -0.61966  -1.02186 
 H                     0.41428  -1.53583  -0.70324 
 H                     1.92485  -3.26293  -2.18555 
 O                     2.23968  -3.78112  -1.42296 
 H                     3.1772   -3.03944  -0.10593 
 H                     2.56024  -4.625    -1.76202 
 H                     1.51194   5.3028    2.93837 
 H                     0.20642   4.61542   3.91129 
 H                    -3.74183   0.07937   1.85545 
 H                    -3.25303  -1.5977    2.12483 
 H                     5.25662  -3.08827  -1.27567 
 C                    -2.28766  -0.17217  -2.22782 
 C                    -2.2718   -1.57407  -2.08395 
 C                    -3.2349   -2.20444  -1.32996 
 C                    -4.24865  -1.47801  -0.68385 
 C                    -4.23562  -0.08876  -0.83633 
 C                    -3.27224   0.5739   -1.57917 
 H                    -1.50477  -2.13455  -2.60435 
 H                    -3.22926  -3.28506  -1.25071 
 H                    -3.30028   1.65382  -1.65626 
 O                    -1.34882   0.39552  -2.98014 
 C                     1.13107  -0.66158  -2.32048 
 O                     1.11527  -1.70703  -2.93052 
 C                     1.59385   0.63434  -2.90488 
 H                     2.64986   0.5393   -3.16326 
 H                     1.03266   0.80719  -3.82042 
 H                     1.46177   1.46837  -2.22137 
 C                    -6.2043    0.16795   0.5097 
 C                    -6.22346  -1.26871   0.6789 
 H                    -7.02745  -1.65822   1.28719 
 C                    -5.29634  -2.07316   0.1154 
 C                    -5.32461  -3.55568   0.316 
 H                    -5.39745  -4.07179  -0.64303 
 H                    -4.40315  -3.88969   0.7982 
 H                    -6.16955  -3.84655   0.93561 
 O                    -6.99907   0.94852   0.97814 
 O                    -5.18695   0.69299  -0.2459 
 O                    -2.6717    4.17869  -1.70841 
 H                    -2.30243   3.45293  -2.67207 
 H                    -3.62042   4.13746  -1.56027 
 O                    -1.91088   2.7452   -3.49096 
 H                    -1.28095   3.20869  -4.05 
 H                    -1.5678    1.40948  -3.19417 
 
 Add virtual bond connecting atoms O87        and H85        Dist= 2.18D+00.
 Add virtual bond connecting atoms H85        and O84        Dist= 2.38D+00.
 Add virtual bond connecting atoms H89        and O87        Dist= 2.67D+00.
 Add virtual bond connecting atoms O84        and H11        Dist= 2.67D+00.
 Add virtual bond connecting atoms H48        and O44        Dist= 2.84D+00.
 Add virtual bond connecting atoms H51        and O50        Dist= 3.36D+00.
 Add virtual bond connecting atoms H46        and O50        Dist= 3.61D+00.
 Add virtual bond connecting atoms O69        and H49        Dist= 3.60D+00.
 The following ModRedundant input section has been read:
 X      27 F                                                                   
 X       1 F                                                                   
 X      14 F                                                                   
 B      67      68 B                                                           
 

 GradGradGradGradGradGradGradGradGradGradGradGradGradGradGradGradGradGrad
 Berny optimization.
 Initialization pass.
                           ----------------------------
                           !    Initial Parameters    !
                           ! (Angstroms and Degrees)  !
 --------------------------                            --------------------------
 ! Name  Definition              Value          Derivative Info.                !
 --------------------------------------------------------------------------------
 ! X1    R(1,-1)                 1.2323         frozen, calculate D2E/DX2 analyt!
 ! Y1    R(1,-2)                 4.4613         frozen, calculate D2E/DX2 analyt!
 ! Z1    R(1,-3)                 3.5737         frozen, calculate D2E/DX2 analyt!
 ! X14   R(14,-1)               -2.9898         frozen, calculate D2E/DX2 analyt!
 ! Y14   R(14,-2)               -0.5565         frozen, calculate D2E/DX2 analyt!
 ! Z14   R(14,-3)                2.32           frozen, calculate D2E/DX2 analyt!
 ! X27   R(27,-1)                5.3119         frozen, calculate D2E/DX2 analyt!
 ! Y27   R(27,-2)               -2.0965         frozen, calculate D2E/DX2 analyt!
 ! Z27   R(27,-3)               -0.8234         frozen, calculate D2E/DX2 analyt!
 ! R1    R(1,2)                  1.089          calculate D2E/DX2 analytically  !
 ! R2    R(1,3)                  1.5308         calculate D2E/DX2 analytically  !
 ! R3    R(1,53)                 1.0908         calculate D2E/DX2 analytically  !
 ! R4    R(1,54)                 1.091          calculate D2E/DX2 analytically  !
 ! R5    R(3,4)                  1.0946         calculate D2E/DX2 analytically  !
 ! R6    R(3,5)                  1.0937         calculate D2E/DX2 analytically  !
 ! R7    R(3,7)                  1.4993         calculate D2E/DX2 analytically  !
 ! R8    R(6,7)                  1.3852         calculate D2E/DX2 analytically  !
 ! R9    R(6,8)                  1.3317         calculate D2E/DX2 analytically  !
 ! R10   R(6,43)                 2.0923         calculate D2E/DX2 analytically  !
 ! R11   R(7,12)                 1.3682         calculate D2E/DX2 analytically  !
 ! R12   R(8,9)                  1.0802         calculate D2E/DX2 analytically  !
 ! R13   R(8,10)                 1.3302         calculate D2E/DX2 analytically  !
 ! R14   R(10,11)                1.1245         calculate D2E/DX2 analytically  !
 ! R15   R(10,12)                1.372          calculate D2E/DX2 analytically  !
 ! R16   R(11,84)                1.411          calculate D2E/DX2 analytically  !
 ! R17   R(12,13)                1.0762         calculate D2E/DX2 analytically  !
 ! R18   R(14,15)                1.0913         calculate D2E/DX2 analytically  !
 ! R19   R(14,16)                1.5312         calculate D2E/DX2 analytically  !
 ! R20   R(14,55)                1.0889         calculate D2E/DX2 analytically  !
 ! R21   R(14,56)                1.0915         calculate D2E/DX2 analytically  !
 ! R22   R(16,17)                1.0937         calculate D2E/DX2 analytically  !
 ! R23   R(16,18)                1.0977         calculate D2E/DX2 analytically  !
 ! R24   R(16,20)                1.4975         calculate D2E/DX2 analytically  !
 ! R25   R(19,20)                1.39           calculate D2E/DX2 analytically  !
 ! R26   R(19,21)                1.3217         calculate D2E/DX2 analytically  !
 ! R27   R(19,43)                2.0793         calculate D2E/DX2 analytically  !
 ! R28   R(20,25)                1.3624         calculate D2E/DX2 analytically  !
 ! R29   R(21,22)                1.0767         calculate D2E/DX2 analytically  !
 ! R30   R(21,23)                1.3356         calculate D2E/DX2 analytically  !
 ! R31   R(23,24)                1.0092         calculate D2E/DX2 analytically  !
 ! R32   R(23,25)                1.3752         calculate D2E/DX2 analytically  !
 ! R33   R(25,26)                1.075          calculate D2E/DX2 analytically  !
 ! R34   R(27,28)                1.0872         calculate D2E/DX2 analytically  !
 ! R35   R(27,29)                1.5413         calculate D2E/DX2 analytically  !
 ! R36   R(27,40)                1.5105         calculate D2E/DX2 analytically  !
 ! R37   R(27,57)                1.0914         calculate D2E/DX2 analytically  !
 ! R38   R(29,30)                1.0895         calculate D2E/DX2 analytically  !
 ! R39   R(29,31)                1.0899         calculate D2E/DX2 analytically  !
 ! R40   R(29,33)                1.4972         calculate D2E/DX2 analytically  !
 ! R41   R(32,33)                1.3894         calculate D2E/DX2 analytically  !
 ! R42   R(32,34)                1.3238         calculate D2E/DX2 analytically  !
 ! R43   R(32,43)                2.1093         calculate D2E/DX2 analytically  !
 ! R44   R(33,38)                1.3631         calculate D2E/DX2 analytically  !
 ! R45   R(34,35)                1.0775         calculate D2E/DX2 analytically  !
 ! R46   R(34,36)                1.3356         calculate D2E/DX2 analytically  !
 ! R47   R(36,37)                1.0101         calculate D2E/DX2 analytically  !
 ! R48   R(36,38)                1.3697         calculate D2E/DX2 analytically  !
 ! R49   R(38,39)                1.0756         calculate D2E/DX2 analytically  !
 ! R50   R(40,41)                1.2049         calculate D2E/DX2 analytically  !
 ! R51   R(40,42)                1.3386         calculate D2E/DX2 analytically  !
 ! R52   R(42,51)                0.9832         calculate D2E/DX2 analytically  !
 ! R53   R(44,45)                0.9646         calculate D2E/DX2 analytically  !
 ! R54   R(44,46)                0.974          calculate D2E/DX2 analytically  !
 ! R55   R(44,48)                1.5044         calculate D2E/DX2 analytically  !
 ! R56   R(46,50)                1.9101         calculate D2E/DX2 analytically  !
 ! R57   R(47,48)                1.0352         calculate D2E/DX2 analytically  !
 ! R58   R(47,68)                1.3469         calculate D2E/DX2 analytically  !
 ! R59   R(49,50)                0.9743         calculate D2E/DX2 analytically  !
 ! R60   R(49,69)                1.9056         calculate D2E/DX2 analytically  !
 ! R61   R(50,51)                1.7786         calculate D2E/DX2 analytically  !
 ! R62   R(50,52)                0.9643         calculate D2E/DX2 analytically  !
 ! R63   R(58,59)                1.4094         calculate D2E/DX2 analytically  !
 ! R64   R(58,63)                1.3953         calculate D2E/DX2 analytically  !
 ! R65   R(58,67)                1.3303         calculate D2E/DX2 analytically  !
 ! R66   R(59,60)                1.376          calculate D2E/DX2 analytically  !
 ! R67   R(59,64)                1.0832         calculate D2E/DX2 analytically  !
 ! R68   R(60,61)                1.4046         calculate D2E/DX2 analytically  !
 ! R69   R(60,65)                1.0835         calculate D2E/DX2 analytically  !
 ! R70   R(61,62)                1.3977         calculate D2E/DX2 analytically  !
 ! R71   R(61,77)                1.4459         calculate D2E/DX2 analytically  !
 ! R72   R(62,63)                1.3853         calculate D2E/DX2 analytically  !
 ! R73   R(62,83)                1.3656         calculate D2E/DX2 analytically  !
 ! R74   R(63,66)                1.083          calculate D2E/DX2 analytically  !
 ! R75   R(67,68)                2.7753         calculate D2E/DX2 analytically  !
 ! R76   R(67,89)                1.0592         calculate D2E/DX2 analytically  !
 ! R77   R(68,69)                1.2105         calculate D2E/DX2 analytically  !
 ! R78   R(68,70)                1.495          calculate D2E/DX2 analytically  !
 ! R79   R(70,71)                1.0913         calculate D2E/DX2 analytically  !
 ! R80   R(70,72)                1.0877         calculate D2E/DX2 analytically  !
 ! R81   R(70,73)                1.0864         calculate D2E/DX2 analytically  !
 ! R82   R(74,75)                1.4467         calculate D2E/DX2 analytically  !
 ! R83   R(74,82)                1.2085         calculate D2E/DX2 analytically  !
 ! R84   R(74,83)                1.3717         calculate D2E/DX2 analytically  !
 ! R85   R(75,76)                1.0808         calculate D2E/DX2 analytically  !
 ! R86   R(75,77)                1.3506         calculate D2E/DX2 analytically  !
 ! R87   R(77,78)                1.4963         calculate D2E/DX2 analytically  !
 ! R88   R(78,79)                1.0915         calculate D2E/DX2 analytically  !
 ! R89   R(78,80)                1.0923         calculate D2E/DX2 analytically  !
 ! R90   R(78,81)                1.0874         calculate D2E/DX2 analytically  !
 ! R91   R(84,85)                1.2616         calculate D2E/DX2 analytically  !
 ! R92   R(84,86)                0.9611         calculate D2E/DX2 analytically  !
 ! R93   R(85,87)                1.151          calculate D2E/DX2 analytically  !
 ! R94   R(87,88)                0.9613         calculate D2E/DX2 analytically  !
 ! R95   R(87,89)                1.4107         calculate D2E/DX2 analytically  !
 ! A1    A(2,1,3)              110.3112         calculate D2E/DX2 analytically  !
 ! A2    A(2,1,53)             108.4146         calculate D2E/DX2 analytically  !
 ! A3    A(2,1,54)             108.047          calculate D2E/DX2 analytically  !
 ! A4    A(3,1,53)             110.8652         calculate D2E/DX2 analytically  !
 ! A5    A(3,1,54)             110.9067         calculate D2E/DX2 analytically  !
 ! A6    A(53,1,54)            108.2003         calculate D2E/DX2 analytically  !
 ! A7    A(1,3,4)              109.6342         calculate D2E/DX2 analytically  !
 ! A8    A(1,3,5)              109.6081         calculate D2E/DX2 analytically  !
 ! A9    A(1,3,7)              113.4163         calculate D2E/DX2 analytically  !
 ! A10   A(4,3,5)              105.8087         calculate D2E/DX2 analytically  !
 ! A11   A(4,3,7)              108.6887         calculate D2E/DX2 analytically  !
 ! A12   A(5,3,7)              109.4004         calculate D2E/DX2 analytically  !
 ! A13   A(7,6,8)              106.2518         calculate D2E/DX2 analytically  !
 ! A14   A(7,6,43)             129.2531         calculate D2E/DX2 analytically  !
 ! A15   A(8,6,43)             123.9066         calculate D2E/DX2 analytically  !
 ! A16   A(3,7,6)              122.9449         calculate D2E/DX2 analytically  !
 ! A17   A(3,7,12)             129.3457         calculate D2E/DX2 analytically  !
 ! A18   A(6,7,12)             107.6796         calculate D2E/DX2 analytically  !
 ! A19   A(6,8,9)              125.0318         calculate D2E/DX2 analytically  !
 ! A20   A(6,8,10)             111.519          calculate D2E/DX2 analytically  !
 ! A21   A(9,8,10)             123.4414         calculate D2E/DX2 analytically  !
 ! A22   A(8,10,11)            122.6577         calculate D2E/DX2 analytically  !
 ! A23   A(8,10,12)            107.0902         calculate D2E/DX2 analytically  !
 ! A24   A(11,10,12)           130.1441         calculate D2E/DX2 analytically  !
 ! A25   A(7,12,10)            107.4568         calculate D2E/DX2 analytically  !
 ! A26   A(7,12,13)            130.579          calculate D2E/DX2 analytically  !
 ! A27   A(10,12,13)           121.9641         calculate D2E/DX2 analytically  !
 ! A28   A(15,14,16)           110.8508         calculate D2E/DX2 analytically  !
 ! A29   A(15,14,55)           107.8282         calculate D2E/DX2 analytically  !
 ! A30   A(15,14,56)           108.4416         calculate D2E/DX2 analytically  !
 ! A31   A(16,14,55)           110.0677         calculate D2E/DX2 analytically  !
 ! A32   A(16,14,56)           111.2339         calculate D2E/DX2 analytically  !
 ! A33   A(55,14,56)           108.3129         calculate D2E/DX2 analytically  !
 ! A34   A(14,16,17)           109.7291         calculate D2E/DX2 analytically  !
 ! A35   A(14,16,18)           109.7321         calculate D2E/DX2 analytically  !
 ! A36   A(14,16,20)           112.662          calculate D2E/DX2 analytically  !
 ! A37   A(17,16,18)           106.2078         calculate D2E/DX2 analytically  !
 ! A38   A(17,16,20)           109.08           calculate D2E/DX2 analytically  !
 ! A39   A(18,16,20)           109.2207         calculate D2E/DX2 analytically  !
 ! A40   A(20,19,21)           107.1022         calculate D2E/DX2 analytically  !
 ! A41   A(20,19,43)           130.3607         calculate D2E/DX2 analytically  !
 ! A42   A(21,19,43)           122.5117         calculate D2E/DX2 analytically  !
 ! A43   A(16,20,19)           124.0946         calculate D2E/DX2 analytically  !
 ! A44   A(16,20,25)           127.9762         calculate D2E/DX2 analytically  !
 ! A45   A(19,20,25)           107.9218         calculate D2E/DX2 analytically  !
 ! A46   A(19,21,22)           125.701          calculate D2E/DX2 analytically  !
 ! A47   A(19,21,23)           110.1828         calculate D2E/DX2 analytically  !
 ! A48   A(22,21,23)           124.1066         calculate D2E/DX2 analytically  !
 ! A49   A(21,23,24)           125.4293         calculate D2E/DX2 analytically  !
 ! A50   A(21,23,25)           108.3604         calculate D2E/DX2 analytically  !
 ! A51   A(24,23,25)           126.2102         calculate D2E/DX2 analytically  !
 ! A52   A(20,25,23)           106.432          calculate D2E/DX2 analytically  !
 ! A53   A(20,25,26)           131.5639         calculate D2E/DX2 analytically  !
 ! A54   A(23,25,26)           122.0036         calculate D2E/DX2 analytically  !
 ! A55   A(28,27,29)           110.9813         calculate D2E/DX2 analytically  !
 ! A56   A(28,27,40)           108.6092         calculate D2E/DX2 analytically  !
 ! A57   A(28,27,57)           109.4565         calculate D2E/DX2 analytically  !
 ! A58   A(29,27,40)           108.8274         calculate D2E/DX2 analytically  !
 ! A59   A(29,27,57)           109.1578         calculate D2E/DX2 analytically  !
 ! A60   A(40,27,57)           109.7934         calculate D2E/DX2 analytically  !
 ! A61   A(27,29,30)           108.8662         calculate D2E/DX2 analytically  !
 ! A62   A(27,29,31)           108.3542         calculate D2E/DX2 analytically  !
 ! A63   A(27,29,33)           114.5153         calculate D2E/DX2 analytically  !
 ! A64   A(30,29,31)           106.6217         calculate D2E/DX2 analytically  !
 ! A65   A(30,29,33)           109.6569         calculate D2E/DX2 analytically  !
 ! A66   A(31,29,33)           108.5279         calculate D2E/DX2 analytically  !
 ! A67   A(33,32,34)           106.5347         calculate D2E/DX2 analytically  !
 ! A68   A(33,32,43)           138.6403         calculate D2E/DX2 analytically  !
 ! A69   A(34,32,43)           114.7976         calculate D2E/DX2 analytically  !
 ! A70   A(29,33,32)           125.1789         calculate D2E/DX2 analytically  !
 ! A71   A(29,33,38)           126.5389         calculate D2E/DX2 analytically  !
 ! A72   A(32,33,38)           108.2285         calculate D2E/DX2 analytically  !
 ! A73   A(32,34,35)           125.8555         calculate D2E/DX2 analytically  !
 ! A74   A(32,34,36)           110.5139         calculate D2E/DX2 analytically  !
 ! A75   A(35,34,36)           123.6186         calculate D2E/DX2 analytically  !
 ! A76   A(34,36,37)           125.4159         calculate D2E/DX2 analytically  !
 ! A77   A(34,36,38)           108.286          calculate D2E/DX2 analytically  !
 ! A78   A(37,36,38)           126.2903         calculate D2E/DX2 analytically  !
 ! A79   A(33,38,36)           106.4351         calculate D2E/DX2 analytically  !
 ! A80   A(33,38,39)           131.1311         calculate D2E/DX2 analytically  !
 ! A81   A(36,38,39)           122.4257         calculate D2E/DX2 analytically  !
 ! A82   A(27,40,41)           124.4504         calculate D2E/DX2 analytically  !
 ! A83   A(27,40,42)           115.9511         calculate D2E/DX2 analytically  !
 ! A84   A(41,40,42)           119.5102         calculate D2E/DX2 analytically  !
 ! A85   A(40,42,51)           113.673          calculate D2E/DX2 analytically  !
 ! A86   A(6,43,19)            104.1516         calculate D2E/DX2 analytically  !
 ! A87   A(6,43,32)            103.5648         calculate D2E/DX2 analytically  !
 ! A88   A(19,43,32)           149.3491         calculate D2E/DX2 analytically  !
 ! A89   A(45,44,46)           108.152          calculate D2E/DX2 analytically  !
 ! A90   A(45,44,48)           116.3503         calculate D2E/DX2 analytically  !
 ! A91   A(46,44,48)           108.2611         calculate D2E/DX2 analytically  !
 ! A92   A(44,46,50)           142.2608         calculate D2E/DX2 analytically  !
 ! A93   A(48,47,68)           111.1794         calculate D2E/DX2 analytically  !
 ! A94   A(50,49,69)           151.3515         calculate D2E/DX2 analytically  !
 ! A95   A(46,50,49)            92.8376         calculate D2E/DX2 analytically  !
 ! A96   A(46,50,51)            91.6784         calculate D2E/DX2 analytically  !
 ! A97   A(46,50,52)           124.6727         calculate D2E/DX2 analytically  !
 ! A98   A(49,50,51)           121.8791         calculate D2E/DX2 analytically  !
 ! A99   A(49,50,52)           107.3172         calculate D2E/DX2 analytically  !
 ! A100  A(51,50,52)           116.748          calculate D2E/DX2 analytically  !
 ! A101  A(59,58,63)           119.4966         calculate D2E/DX2 analytically  !
 ! A102  A(59,58,67)           118.3116         calculate D2E/DX2 analytically  !
 ! A103  A(63,58,67)           122.191          calculate D2E/DX2 analytically  !
 ! A104  A(58,59,60)           120.2484         calculate D2E/DX2 analytically  !
 ! A105  A(58,59,64)           118.2698         calculate D2E/DX2 analytically  !
 ! A106  A(60,59,64)           121.4557         calculate D2E/DX2 analytically  !
 ! A107  A(59,60,61)           121.352          calculate D2E/DX2 analytically  !
 ! A108  A(59,60,65)           119.5592         calculate D2E/DX2 analytically  !
 ! A109  A(61,60,65)           119.071          calculate D2E/DX2 analytically  !
 ! A110  A(60,61,62)           117.2036         calculate D2E/DX2 analytically  !
 ! A111  A(60,61,77)           124.3584         calculate D2E/DX2 analytically  !
 ! A112  A(62,61,77)           118.4375         calculate D2E/DX2 analytically  !
 ! A113  A(61,62,63)           122.7155         calculate D2E/DX2 analytically  !
 ! A114  A(61,62,83)           121.0214         calculate D2E/DX2 analytically  !
 ! A115  A(63,62,83)           116.2628         calculate D2E/DX2 analytically  !
 ! A116  A(58,63,62)           118.9632         calculate D2E/DX2 analytically  !
 ! A117  A(58,63,66)           121.2223         calculate D2E/DX2 analytically  !
 ! A118  A(62,63,66)           119.8111         calculate D2E/DX2 analytically  !
 ! A119  A(58,67,68)           109.4907         calculate D2E/DX2 analytically  !
 ! A120  A(58,67,89)           112.1406         calculate D2E/DX2 analytically  !
 ! A121  A(68,67,89)           126.6833         calculate D2E/DX2 analytically  !
 ! A122  A(47,68,67)            88.9538         calculate D2E/DX2 analytically  !
 ! A123  A(47,68,69)           120.6178         calculate D2E/DX2 analytically  !
 ! A124  A(47,68,70)           115.5628         calculate D2E/DX2 analytically  !
 ! A125  A(67,68,69)           101.3909         calculate D2E/DX2 analytically  !
 ! A126  A(67,68,70)            81.5768         calculate D2E/DX2 analytically  !
 ! A127  A(69,68,70)           123.7564         calculate D2E/DX2 analytically  !
 ! A128  A(49,69,68)           120.1716         calculate D2E/DX2 analytically  !
 ! A129  A(68,70,71)           108.4567         calculate D2E/DX2 analytically  !
 ! A130  A(68,70,72)           107.883          calculate D2E/DX2 analytically  !
 ! A131  A(68,70,73)           112.4508         calculate D2E/DX2 analytically  !
 ! A132  A(71,70,72)           108.2895         calculate D2E/DX2 analytically  !
 ! A133  A(71,70,73)           109.4791         calculate D2E/DX2 analytically  !
 ! A134  A(72,70,73)           110.174          calculate D2E/DX2 analytically  !
 ! A135  A(75,74,82)           125.9719         calculate D2E/DX2 analytically  !
 ! A136  A(75,74,83)           117.023          calculate D2E/DX2 analytically  !
 ! A137  A(82,74,83)           117.0042         calculate D2E/DX2 analytically  !
 ! A138  A(74,75,76)           115.6937         calculate D2E/DX2 analytically  !
 ! A139  A(74,75,77)           122.2482         calculate D2E/DX2 analytically  !
 ! A140  A(76,75,77)           122.0581         calculate D2E/DX2 analytically  !
 ! A141  A(61,77,75)           118.8709         calculate D2E/DX2 analytically  !
 ! A142  A(61,77,78)           119.7103         calculate D2E/DX2 analytically  !
 ! A143  A(75,77,78)           121.4146         calculate D2E/DX2 analytically  !
 ! A144  A(77,78,79)           110.6068         calculate D2E/DX2 analytically  !
 ! A145  A(77,78,80)           110.2553         calculate D2E/DX2 analytically  !
 ! A146  A(77,78,81)           110.8607         calculate D2E/DX2 analytically  !
 ! A147  A(79,78,80)           107.4318         calculate D2E/DX2 analytically  !
 ! A148  A(79,78,81)           108.8033         calculate D2E/DX2 analytically  !
 ! A149  A(80,78,81)           108.7929         calculate D2E/DX2 analytically  !
 ! A150  A(62,83,74)           122.3937         calculate D2E/DX2 analytically  !
 ! A151  A(11,84,85)           103.5886         calculate D2E/DX2 analytically  !
 ! A152  A(11,84,86)           117.6636         calculate D2E/DX2 analytically  !
 ! A153  A(85,84,86)           112.4568         calculate D2E/DX2 analytically  !
 ! A154  A(85,87,88)           109.8882         calculate D2E/DX2 analytically  !
 ! A155  A(85,87,89)           121.0157         calculate D2E/DX2 analytically  !
 ! A156  A(88,87,89)           114.8038         calculate D2E/DX2 analytically  !
 ! A157  L(10,11,84,55,-1)     183.9199         calculate D2E/DX2 analytically  !
 ! A158  L(44,48,47,14,-1)     180.1485         calculate D2E/DX2 analytically  !
 ! A159  L(42,51,50,6,-1)      176.4373         calculate D2E/DX2 analytically  !
 ! A160  L(84,85,87,5,-1)      175.6112         calculate D2E/DX2 analytically  !
 ! A161  L(67,89,87,1,-1)      181.3824         calculate D2E/DX2 analytically  !
 ! A162  L(10,11,84,55,-2)     191.6269         calculate D2E/DX2 analytically  !
 ! A163  L(44,48,47,14,-2)     172.9974         calculate D2E/DX2 analytically  !
 ! A164  L(42,51,50,6,-2)      190.6917         calculate D2E/DX2 analytically  !
 ! A165  L(84,85,87,5,-2)      178.4104         calculate D2E/DX2 analytically  !
 ! A166  L(67,89,87,1,-2)      181.7536         calculate D2E/DX2 analytically  !
 ! D1    D(2,1,3,4)             58.719          calculate D2E/DX2 analytically  !
 ! D2    D(2,1,3,5)            -57.0118         calculate D2E/DX2 analytically  !
 ! D3    D(2,1,3,7)           -179.5963         calculate D2E/DX2 analytically  !
 ! D4    D(53,1,3,4)           178.822          calculate D2E/DX2 analytically  !
 ! D5    D(53,1,3,5)            63.0913         calculate D2E/DX2 analytically  !
 ! D6    D(53,1,3,7)           -59.4932         calculate D2E/DX2 analytically  !
 ! D7    D(54,1,3,4)           -60.9513         calculate D2E/DX2 analytically  !
 ! D8    D(54,1,3,5)          -176.6821         calculate D2E/DX2 analytically  !
 ! D9    D(54,1,3,7)            60.7334         calculate D2E/DX2 analytically  !
 ! D10   D(1,3,7,6)            169.9591         calculate D2E/DX2 analytically  !
 ! D11   D(1,3,7,12)           -12.2789         calculate D2E/DX2 analytically  !
 ! D12   D(4,3,7,6)            -67.8293         calculate D2E/DX2 analytically  !
 ! D13   D(4,3,7,12)           109.9327         calculate D2E/DX2 analytically  !
 ! D14   D(5,3,7,6)             47.2597         calculate D2E/DX2 analytically  !
 ! D15   D(5,3,7,12)          -134.9783         calculate D2E/DX2 analytically  !
 ! D16   D(8,6,7,3)            177.6724         calculate D2E/DX2 analytically  !
 ! D17   D(8,6,7,12)            -0.5112         calculate D2E/DX2 analytically  !
 ! D18   D(43,6,7,3)             6.3419         calculate D2E/DX2 analytically  !
 ! D19   D(43,6,7,12)         -171.8417         calculate D2E/DX2 analytically  !
 ! D20   D(7,6,8,9)           -178.6471         calculate D2E/DX2 analytically  !
 ! D21   D(7,6,8,10)             0.3605         calculate D2E/DX2 analytically  !
 ! D22   D(43,6,8,9)            -6.7318         calculate D2E/DX2 analytically  !
 ! D23   D(43,6,8,10)          172.2757         calculate D2E/DX2 analytically  !
 ! D24   D(7,6,43,19)           72.6391         calculate D2E/DX2 analytically  !
 ! D25   D(7,6,43,32)          -94.1431         calculate D2E/DX2 analytically  !
 ! D26   D(8,6,43,19)          -97.3193         calculate D2E/DX2 analytically  !
 ! D27   D(8,6,43,32)           95.8984         calculate D2E/DX2 analytically  !
 ! D28   D(3,7,12,10)         -177.5521         calculate D2E/DX2 analytically  !
 ! D29   D(3,7,12,13)            2.5653         calculate D2E/DX2 analytically  !
 ! D30   D(6,7,12,10)            0.4768         calculate D2E/DX2 analytically  !
 ! D31   D(6,7,12,13)         -179.4058         calculate D2E/DX2 analytically  !
 ! D32   D(6,8,10,11)          176.5051         calculate D2E/DX2 analytically  !
 ! D33   D(6,8,10,12)           -0.0673         calculate D2E/DX2 analytically  !
 ! D34   D(9,8,10,11)           -4.4688         calculate D2E/DX2 analytically  !
 ! D35   D(9,8,10,12)          178.9588         calculate D2E/DX2 analytically  !
 ! D36   D(8,10,84,85)         -11.8064         calculate D2E/DX2 analytically  !
 ! D37   D(8,10,84,86)         111.4985         calculate D2E/DX2 analytically  !
 ! D38   D(12,10,84,85)        158.2885         calculate D2E/DX2 analytically  !
 ! D39   D(12,10,84,86)        -78.4066         calculate D2E/DX2 analytically  !
 ! D40   D(8,10,12,7)           -0.2597         calculate D2E/DX2 analytically  !
 ! D41   D(8,10,12,13)         179.6352         calculate D2E/DX2 analytically  !
 ! D42   D(11,10,12,7)        -176.4841         calculate D2E/DX2 analytically  !
 ! D43   D(11,10,12,13)          3.4108         calculate D2E/DX2 analytically  !
 ! D44   D(15,14,16,17)        -64.2284         calculate D2E/DX2 analytically  !
 ! D45   D(15,14,16,18)        179.4339         calculate D2E/DX2 analytically  !
 ! D46   D(15,14,16,20)         57.5117         calculate D2E/DX2 analytically  !
 ! D47   D(55,14,16,17)         54.9764         calculate D2E/DX2 analytically  !
 ! D48   D(55,14,16,18)        -61.3612         calculate D2E/DX2 analytically  !
 ! D49   D(55,14,16,20)        176.7165         calculate D2E/DX2 analytically  !
 ! D50   D(56,14,16,17)        175.0309         calculate D2E/DX2 analytically  !
 ! D51   D(56,14,16,18)         58.6932         calculate D2E/DX2 analytically  !
 ! D52   D(56,14,16,20)        -63.229          calculate D2E/DX2 analytically  !
 ! D53   D(14,16,20,19)       -179.5675         calculate D2E/DX2 analytically  !
 ! D54   D(14,16,20,25)          1.5459         calculate D2E/DX2 analytically  !
 ! D55   D(17,16,20,19)        -57.4604         calculate D2E/DX2 analytically  !
 ! D56   D(17,16,20,25)        123.653          calculate D2E/DX2 analytically  !
 ! D57   D(18,16,20,19)         58.2215         calculate D2E/DX2 analytically  !
 ! D58   D(18,16,20,25)       -120.665          calculate D2E/DX2 analytically  !
 ! D59   D(21,19,20,16)       -178.7747         calculate D2E/DX2 analytically  !
 ! D60   D(21,19,20,25)          0.3028         calculate D2E/DX2 analytically  !
 ! D61   D(43,19,20,16)         -0.6095         calculate D2E/DX2 analytically  !
 ! D62   D(43,19,20,25)        178.4681         calculate D2E/DX2 analytically  !
 ! D63   D(20,19,21,22)        178.6238         calculate D2E/DX2 analytically  !
 ! D64   D(20,19,21,23)         -0.2845         calculate D2E/DX2 analytically  !
 ! D65   D(43,19,21,22)          0.2816         calculate D2E/DX2 analytically  !
 ! D66   D(43,19,21,23)       -178.6267         calculate D2E/DX2 analytically  !
 ! D67   D(20,19,43,6)          32.8607         calculate D2E/DX2 analytically  !
 ! D68   D(20,19,43,32)       -172.9881         calculate D2E/DX2 analytically  !
 ! D69   D(21,19,43,6)        -149.2189         calculate D2E/DX2 analytically  !
 ! D70   D(21,19,43,32)          4.9323         calculate D2E/DX2 analytically  !
 ! D71   D(16,20,25,23)        178.8255         calculate D2E/DX2 analytically  !
 ! D72   D(16,20,25,26)         -0.9072         calculate D2E/DX2 analytically  !
 ! D73   D(19,20,25,23)         -0.2054         calculate D2E/DX2 analytically  !
 ! D74   D(19,20,25,26)       -179.9382         calculate D2E/DX2 analytically  !
 ! D75   D(19,21,23,24)       -179.7055         calculate D2E/DX2 analytically  !
 ! D76   D(19,21,23,25)          0.1593         calculate D2E/DX2 analytically  !
 ! D77   D(22,21,23,24)          1.3652         calculate D2E/DX2 analytically  !
 ! D78   D(22,21,23,25)       -178.7701         calculate D2E/DX2 analytically  !
 ! D79   D(21,23,25,20)          0.0354         calculate D2E/DX2 analytically  !
 ! D80   D(21,23,25,26)        179.7997         calculate D2E/DX2 analytically  !
 ! D81   D(24,23,25,20)        179.8988         calculate D2E/DX2 analytically  !
 ! D82   D(24,23,25,26)         -0.3369         calculate D2E/DX2 analytically  !
 ! D83   D(28,27,29,30)        179.6935         calculate D2E/DX2 analytically  !
 ! D84   D(28,27,29,31)         64.1074         calculate D2E/DX2 analytically  !
 ! D85   D(28,27,29,33)        -57.176          calculate D2E/DX2 analytically  !
 ! D86   D(40,27,29,30)        -60.8445         calculate D2E/DX2 analytically  !
 ! D87   D(40,27,29,31)       -176.4306         calculate D2E/DX2 analytically  !
 ! D88   D(40,27,29,33)         62.286          calculate D2E/DX2 analytically  !
 ! D89   D(57,27,29,30)         58.9705         calculate D2E/DX2 analytically  !
 ! D90   D(57,27,29,31)        -56.6156         calculate D2E/DX2 analytically  !
 ! D91   D(57,27,29,33)       -177.899          calculate D2E/DX2 analytically  !
 ! D92   D(28,27,40,41)          9.8631         calculate D2E/DX2 analytically  !
 ! D93   D(28,27,40,42)       -173.5813         calculate D2E/DX2 analytically  !
 ! D94   D(29,27,40,41)       -111.0662         calculate D2E/DX2 analytically  !
 ! D95   D(29,27,40,42)         65.4894         calculate D2E/DX2 analytically  !
 ! D96   D(57,27,40,41)        129.5141         calculate D2E/DX2 analytically  !
 ! D97   D(57,27,40,42)        -53.9303         calculate D2E/DX2 analytically  !
 ! D98   D(27,29,33,32)        -95.538          calculate D2E/DX2 analytically  !
 ! D99   D(27,29,33,38)         87.4471         calculate D2E/DX2 analytically  !
 ! D100  D(30,29,33,32)         27.1656         calculate D2E/DX2 analytically  !
 ! D101  D(30,29,33,38)       -149.8493         calculate D2E/DX2 analytically  !
 ! D102  D(31,29,33,32)        143.274          calculate D2E/DX2 analytically  !
 ! D103  D(31,29,33,38)        -33.7409         calculate D2E/DX2 analytically  !
 ! D104  D(34,32,33,29)       -177.248          calculate D2E/DX2 analytically  !
 ! D105  D(34,32,33,38)          0.2272         calculate D2E/DX2 analytically  !
 ! D106  D(43,32,33,29)          0.6285         calculate D2E/DX2 analytically  !
 ! D107  D(43,32,33,38)        178.1037         calculate D2E/DX2 analytically  !
 ! D108  D(33,32,34,35)        178.3564         calculate D2E/DX2 analytically  !
 ! D109  D(33,32,34,36)         -0.4183         calculate D2E/DX2 analytically  !
 ! D110  D(43,32,34,35)         -0.0981         calculate D2E/DX2 analytically  !
 ! D111  D(43,32,34,36)       -178.8728         calculate D2E/DX2 analytically  !
 ! D112  D(33,32,43,6)        -145.2028         calculate D2E/DX2 analytically  !
 ! D113  D(33,32,43,19)         60.576          calculate D2E/DX2 analytically  !
 ! D114  D(34,32,43,6)          32.5546         calculate D2E/DX2 analytically  !
 ! D115  D(34,32,43,19)       -121.6666         calculate D2E/DX2 analytically  !
 ! D116  D(29,33,38,36)        177.4711         calculate D2E/DX2 analytically  !
 ! D117  D(29,33,38,39)         -1.4852         calculate D2E/DX2 analytically  !
 ! D118  D(32,33,38,36)          0.0396         calculate D2E/DX2 analytically  !
 ! D119  D(32,33,38,39)       -178.9167         calculate D2E/DX2 analytically  !
 ! D120  D(32,34,36,37)        179.4863         calculate D2E/DX2 analytically  !
 ! D121  D(32,34,36,38)          0.4522         calculate D2E/DX2 analytically  !
 ! D122  D(35,34,36,37)          0.6789         calculate D2E/DX2 analytically  !
 ! D123  D(35,34,36,38)       -178.3552         calculate D2E/DX2 analytically  !
 ! D124  D(34,36,38,33)         -0.2922         calculate D2E/DX2 analytically  !
 ! D125  D(34,36,38,39)        178.7765         calculate D2E/DX2 analytically  !
 ! D126  D(37,36,38,33)       -179.3156         calculate D2E/DX2 analytically  !
 ! D127  D(37,36,38,39)         -0.2469         calculate D2E/DX2 analytically  !
 ! D128  D(27,40,42,51)          7.0256         calculate D2E/DX2 analytically  !
 ! D129  D(41,40,42,51)       -176.2379         calculate D2E/DX2 analytically  !
 ! D130  D(40,42,50,46)       -160.506          calculate D2E/DX2 analytically  !
 ! D131  D(40,42,50,49)        -68.4675         calculate D2E/DX2 analytically  !
 ! D132  D(40,42,50,52)         70.6299         calculate D2E/DX2 analytically  !
 ! D133  D(45,44,46,50)        139.9294         calculate D2E/DX2 analytically  !
 ! D134  D(48,44,46,50)         13.0555         calculate D2E/DX2 analytically  !
 ! D135  D(45,44,47,68)        -82.2412         calculate D2E/DX2 analytically  !
 ! D136  D(46,44,47,68)         41.2586         calculate D2E/DX2 analytically  !
 ! D137  D(44,46,50,49)        -57.7844         calculate D2E/DX2 analytically  !
 ! D138  D(44,46,50,51)         64.2519         calculate D2E/DX2 analytically  !
 ! D139  D(44,46,50,52)       -171.1544         calculate D2E/DX2 analytically  !
 ! D140  D(48,47,68,67)         96.4447         calculate D2E/DX2 analytically  !
 ! D141  D(48,47,68,69)         -6.1896         calculate D2E/DX2 analytically  !
 ! D142  D(48,47,68,70)        176.5907         calculate D2E/DX2 analytically  !
 ! D143  D(69,49,50,46)         49.2783         calculate D2E/DX2 analytically  !
 ! D144  D(69,49,50,51)        -44.4693         calculate D2E/DX2 analytically  !
 ! D145  D(69,49,50,52)        177.0187         calculate D2E/DX2 analytically  !
 ! D146  D(50,49,69,68)         23.4016         calculate D2E/DX2 analytically  !
 ! D147  D(63,58,59,60)          1.2149         calculate D2E/DX2 analytically  !
 ! D148  D(63,58,59,64)        179.387          calculate D2E/DX2 analytically  !
 ! D149  D(67,58,59,60)       -179.1064         calculate D2E/DX2 analytically  !
 ! D150  D(67,58,59,64)         -0.9342         calculate D2E/DX2 analytically  !
 ! D151  D(59,58,63,62)         -1.7564         calculate D2E/DX2 analytically  !
 ! D152  D(59,58,63,66)        178.9127         calculate D2E/DX2 analytically  !
 ! D153  D(67,58,63,62)        178.5779         calculate D2E/DX2 analytically  !
 ! D154  D(67,58,63,66)         -0.7531         calculate D2E/DX2 analytically  !
 ! D155  D(59,58,67,68)        -46.4858         calculate D2E/DX2 analytically  !
 ! D156  D(59,58,67,89)        167.6036         calculate D2E/DX2 analytically  !
 ! D157  D(63,58,67,68)        133.1837         calculate D2E/DX2 analytically  !
 ! D158  D(63,58,67,89)        -12.7269         calculate D2E/DX2 analytically  !
 ! D159  D(58,59,60,61)         -0.2435         calculate D2E/DX2 analytically  !
 ! D160  D(58,59,60,65)        178.2069         calculate D2E/DX2 analytically  !
 ! D161  D(64,59,60,61)       -178.3563         calculate D2E/DX2 analytically  !
 ! D162  D(64,59,60,65)          0.0941         calculate D2E/DX2 analytically  !
 ! D163  D(59,60,61,62)         -0.16           calculate D2E/DX2 analytically  !
 ! D164  D(59,60,61,77)        179.5578         calculate D2E/DX2 analytically  !
 ! D165  D(65,60,61,62)       -178.6178         calculate D2E/DX2 analytically  !
 ! D166  D(65,60,61,77)          1.1            calculate D2E/DX2 analytically  !
 ! D167  D(60,61,62,63)         -0.4245         calculate D2E/DX2 analytically  !
 ! D168  D(60,61,62,83)        179.7777         calculate D2E/DX2 analytically  !
 ! D169  D(77,61,62,63)        179.8404         calculate D2E/DX2 analytically  !
 ! D170  D(77,61,62,83)          0.0425         calculate D2E/DX2 analytically  !
 ! D171  D(60,61,77,75)       -179.4594         calculate D2E/DX2 analytically  !
 ! D172  D(60,61,77,78)          1.2828         calculate D2E/DX2 analytically  !
 ! D173  D(62,61,77,75)          0.2552         calculate D2E/DX2 analytically  !
 ! D174  D(62,61,77,78)       -179.0026         calculate D2E/DX2 analytically  !
 ! D175  D(61,62,63,58)          1.3918         calculate D2E/DX2 analytically  !
 ! D176  D(61,62,63,66)       -179.2676         calculate D2E/DX2 analytically  !
 ! D177  D(83,62,63,58)       -178.8014         calculate D2E/DX2 analytically  !
 ! D178  D(83,62,63,66)          0.5392         calculate D2E/DX2 analytically  !
 ! D179  D(61,62,83,74)         -0.6518         calculate D2E/DX2 analytically  !
 ! D180  D(63,62,83,74)        179.5379         calculate D2E/DX2 analytically  !
 ! D181  D(58,67,68,47)        -40.9464         calculate D2E/DX2 analytically  !
 ! D182  D(58,67,68,69)         80.1146         calculate D2E/DX2 analytically  !
 ! D183  D(58,67,68,70)       -156.9853         calculate D2E/DX2 analytically  !
 ! D184  D(89,67,68,47)         98.7102         calculate D2E/DX2 analytically  !
 ! D185  D(89,67,68,69)       -140.2288         calculate D2E/DX2 analytically  !
 ! D186  D(89,67,68,70)        -17.3288         calculate D2E/DX2 analytically  !
 ! D187  D(58,67,87,85)         44.795          calculate D2E/DX2 analytically  !
 ! D188  D(58,67,87,88)       -178.6533         calculate D2E/DX2 analytically  !
 ! D189  D(68,67,87,85)        -94.4258         calculate D2E/DX2 analytically  !
 ! D190  D(68,67,87,88)         42.1259         calculate D2E/DX2 analytically  !
 ! D191  D(47,68,69,49)        -48.2432         calculate D2E/DX2 analytically  !
 ! D192  D(67,68,69,49)       -143.8437         calculate D2E/DX2 analytically  !
 ! D193  D(70,68,69,49)        128.7399         calculate D2E/DX2 analytically  !
 ! D194  D(47,68,70,71)        114.1042         calculate D2E/DX2 analytically  !
 ! D195  D(47,68,70,72)       -128.8101         calculate D2E/DX2 analytically  !
 ! D196  D(47,68,70,73)         -7.1132         calculate D2E/DX2 analytically  !
 ! D197  D(67,68,70,71)       -161.1336         calculate D2E/DX2 analytically  !
 ! D198  D(67,68,70,72)        -44.0479         calculate D2E/DX2 analytically  !
 ! D199  D(67,68,70,73)         77.649          calculate D2E/DX2 analytically  !
 ! D200  D(69,68,70,71)        -63.0179         calculate D2E/DX2 analytically  !
 ! D201  D(69,68,70,72)         54.0678         calculate D2E/DX2 analytically  !
 ! D202  D(69,68,70,73)        175.7648         calculate D2E/DX2 analytically  !
 ! D203  D(82,74,75,76)         -0.3121         calculate D2E/DX2 analytically  !
 ! D204  D(82,74,75,77)        179.773          calculate D2E/DX2 analytically  !
 ! D205  D(83,74,75,76)        179.3273         calculate D2E/DX2 analytically  !
 ! D206  D(83,74,75,77)         -0.5877         calculate D2E/DX2 analytically  !
 ! D207  D(75,74,83,62)          0.9019         calculate D2E/DX2 analytically  !
 ! D208  D(82,74,83,62)       -179.4257         calculate D2E/DX2 analytically  !
 ! D209  D(74,75,77,61)          0.0227         calculate D2E/DX2 analytically  !
 ! D210  D(74,75,77,78)        179.2673         calculate D2E/DX2 analytically  !
 ! D211  D(76,75,77,61)       -179.8869         calculate D2E/DX2 analytically  !
 ! D212  D(76,75,77,78)         -0.6422         calculate D2E/DX2 analytically  !
 ! D213  D(61,77,78,79)        -59.1299         calculate D2E/DX2 analytically  !
 ! D214  D(61,77,78,80)         59.549          calculate D2E/DX2 analytically  !
 ! D215  D(61,77,78,81)       -179.9137         calculate D2E/DX2 analytically  !
 ! D216  D(75,77,78,79)        121.6316         calculate D2E/DX2 analytically  !
 ! D217  D(75,77,78,80)       -119.6894         calculate D2E/DX2 analytically  !
 ! D218  D(75,77,78,81)          0.8479         calculate D2E/DX2 analytically  !
 ! D219  D(11,84,87,88)        -96.838          calculate D2E/DX2 analytically  !
 ! D220  D(11,84,87,89)         39.1131         calculate D2E/DX2 analytically  !
 ! D221  D(86,84,87,88)        135.956          calculate D2E/DX2 analytically  !
 ! D222  D(86,84,87,89)        -88.0929         calculate D2E/DX2 analytically  !
 --------------------------------------------------------------------------------
 Trust Radius=3.00D-01 FncErr=1.00D-07 GrdErr=1.00D-06 EigMax=2.50D+02 EigMin=1.00D-04
 Number of steps in this run=    502 maximum allowed number of steps=    534.
 GradGradGradGradGradGradGradGradGradGradGradGradGradGradGradGradGradGrad

 Stoichiometry    C28H43N6O11Zn(1+)
 Framework group  C1[X(C28H43N6O11Zn)]
 Deg. of freedom   261
 Full point group                 C1      NOp   1
 Largest Abelian subgroup         C1      NOp   1
 Largest concise Abelian subgroup C1      NOp   1
                         Standard orientation:                         
 ---------------------------------------------------------------------
 Center     Atomic      Atomic             Coordinates (Angstroms)
 Number     Number       Type             X           Y           Z
 ---------------------------------------------------------------------
      1          6           0        1.232304    4.461320    3.573666
      2          1           0        1.879410    4.461633    4.449608
      3          6           0        1.364931    3.138122    2.815535
      4          1           0        1.100072    2.307155    3.476912
      5          1           0        2.410675    2.976946    2.538706
      6          7           0        0.619954    2.054266    0.648582
      7          6           0        0.507950    3.066597    1.587413
      8          6           0       -0.321963    2.286200   -0.263754
      9          1           0       -0.517209    1.664532   -1.125292
     10          7           0       -1.021415    3.380310    0.024348
     11          1           0       -1.825714    3.781708   -0.651219
     12          6           0       -0.509242    3.890914    1.190266
     13          1           0       -0.899884    4.787405    1.639720
     14          6           0       -2.989783   -0.556549    2.319986
     15          1           0       -3.028034   -0.386902    3.397376
     16          6           0       -1.602752   -0.221731    1.764445
     17          1           0       -1.400766    0.845338    1.894202
     18          1           0       -1.581784   -0.408230    0.682939
     19          7           0        0.835953   -0.887997    2.106357
     20          6           0       -0.512261   -1.009837    2.421842
     21          6           0        1.491687   -1.750781    2.862961
     22          1           0        2.554882   -1.919881    2.846243
     23          7           0        0.640169   -2.413978    3.649627
     24          1           0        0.895009   -3.123328    4.320677
     25          6           0       -0.632166   -1.962109    3.388765
     26          1           0       -1.492048   -2.353495    3.901568
     27          6           0        5.311881   -2.096514   -0.823408
     28          1           0        6.349147   -1.773120   -0.785422
     29          6           0        4.457781   -1.115282   -1.650099
     30          1           0        3.429217   -1.474058   -1.670146
     31          1           0        4.814393   -1.133335   -2.679845
     32          7           0        3.548790    0.873756   -0.313565
     33          6           0        4.488284    0.299377   -1.160786
     34          6           0        3.896938    2.142905   -0.170079
     35          1           0        3.364900    2.882091    0.405743
     36          7           0        5.005125    2.405957   -0.867540
     37          1           0        5.462289    3.304964   -0.922985
     38          6           0        5.394591    1.257723   -1.504741
     39          1           0        6.255710    1.218821   -2.148086
     40          6           0        4.770537   -2.146119    0.585853
     41          8           0        5.343565   -1.709967    1.551887
     42          8           0        3.540387   -2.655707    0.723216
     43         30           0        1.787418    0.318881    0.705751
     44          8           0        0.010302   -2.858776   -0.111813
     45          1           0       -0.899798   -3.137642   -0.268174
     46          1           0        0.603230   -3.545402   -0.466355
     47          8           0        0.775974   -0.619658   -1.021856
     48          1           0        0.414282   -1.535833   -0.703243
     49          1           0        1.924845   -3.262929   -2.185546
     50          8           0        2.239683   -3.781124   -1.422955
     51          1           0        3.177202   -3.039442   -0.105932
     52          1           0        2.560236   -4.624995   -1.762021
     53          1           0        1.511939    5.302799    2.938374
     54          1           0        0.206415    4.615420    3.911292
     55          1           0       -3.741832    0.079373    1.855447
     56          1           0       -3.253029   -1.597695    2.124829
     57          1           0        5.256618   -3.088275   -1.275674
     58          6           0       -2.287664   -0.172167   -2.227821
     59          6           0       -2.271804   -1.574068   -2.083953
     60          6           0       -3.234895   -2.204438   -1.329964
     61          6           0       -4.248653   -1.478010   -0.683845
     62          6           0       -4.235616   -0.088758   -0.836327
     63          6           0       -3.272242    0.573901   -1.579171
     64          1           0       -1.504765   -2.134549   -2.604354
     65          1           0       -3.229262   -3.285061   -1.250706
     66          1           0       -3.300284    1.653822   -1.656258
     67          8           0       -1.348821    0.395516   -2.980143
     68          6           0        1.131068   -0.661580   -2.320477
     69          8           0        1.115267   -1.707029   -2.930523
     70          6           0        1.593847    0.634344   -2.904881
     71          1           0        2.649863    0.539298   -3.163259
     72          1           0        1.032657    0.807190   -3.820420
     73          1           0        1.461772    1.468365   -2.221365
     74          6           0       -6.204305    0.167946    0.509698
     75          6           0       -6.223461   -1.268706    0.678899
     76          1           0       -7.027447   -1.658217    1.287192
     77          6           0       -5.296344   -2.073161    0.115403
     78          6           0       -5.324613   -3.555682    0.316001
     79          1           0       -5.397446   -4.071791   -0.643027
     80          1           0       -4.403146   -3.889689    0.798204
     81          1           0       -6.169545   -3.846550    0.935612
     82          8           0       -6.999067    0.948515    0.978135
     83          8           0       -5.186954    0.692989   -0.245897
     84          8           0       -2.671703    4.178692   -1.708411
     85          1           0       -2.302425    3.452932   -2.672070
     86          1           0       -3.620420    4.137465   -1.560265
     87          8           0       -1.910876    2.745201   -3.490961
     88          1           0       -1.280945    3.208694   -4.049997
     89          1           0       -1.567802    1.409475   -3.194167
 ---------------------------------------------------------------------
 Rotational constants (GHZ):           0.0927075           0.0503465           0.0465618
 General basis read from cards:  (5D, 7F)
 ======================================================================================================
                                       Pseudopotential Parameters
 ======================================================================================================
  Center     Atomic      Valence      Angular      Power
  Number     Number     Electrons     Momentum     of R      Exponent        Coefficient   SO-Coeffient
 ======================================================================================================
    1          6
                                   No pseudopotential on this center.
    2          1
                                   No pseudopotential on this center.
    3          6
                                   No pseudopotential on this center.
    4          1
                                   No pseudopotential on this center.
    5          1
                                   No pseudopotential on this center.
    6          7
                                   No pseudopotential on this center.
    7          6
                                   No pseudopotential on this center.
    8          6
                                   No pseudopotential on this center.
    9          1
                                   No pseudopotential on this center.
   10          7
                                   No pseudopotential on this center.
   11          1
                                   No pseudopotential on this center.
   12          6
                                   No pseudopotential on this center.
   13          1
                                   No pseudopotential on this center.
   14          6
                                   No pseudopotential on this center.
   15          1
                                   No pseudopotential on this center.
   16          6
                                   No pseudopotential on this center.
   17          1
                                   No pseudopotential on this center.
   18          1
                                   No pseudopotential on this center.
   19          7
                                   No pseudopotential on this center.
   20          6
                                   No pseudopotential on this center.
   21          6
                                   No pseudopotential on this center.
   22          1
                                   No pseudopotential on this center.
   23          7
                                   No pseudopotential on this center.
   24          1
                                   No pseudopotential on this center.
   25          6
                                   No pseudopotential on this center.
   26          1
                                   No pseudopotential on this center.
   27          6
                                   No pseudopotential on this center.
   28          1
                                   No pseudopotential on this center.
   29          6
                                   No pseudopotential on this center.
   30          1
                                   No pseudopotential on this center.
   31          1
                                   No pseudopotential on this center.
   32          7
                                   No pseudopotential on this center.
   33          6
                                   No pseudopotential on this center.
   34          6
                                   No pseudopotential on this center.
   35          1
                                   No pseudopotential on this center.
   36          7
                                   No pseudopotential on this center.
   37          1
                                   No pseudopotential on this center.
   38          6
                                   No pseudopotential on this center.
   39          1
                                   No pseudopotential on this center.
   40          6
                                   No pseudopotential on this center.
   41          8
                                   No pseudopotential on this center.
   42          8
                                   No pseudopotential on this center.
   43         30           12
                                      F and up 
                                                     1      386.7379660      -18.00000000    0.00000000
                                                     2       72.8587359     -124.35274030    0.00000000
                                                     2       15.9066170      -30.66018220    0.00000000
                                                     2        4.3502340      -10.63589890    0.00000000
                                                     2        1.2842199       -0.76836230    0.00000000
                                      S - F
                                                     0       19.0867858        3.00000000    0.00000000
                                                     1        5.0231080       22.52342250    0.00000000
                                                     2        1.2701744       48.44659420    0.00000000
                                                     2        1.0671287      -44.55601190    0.00000000
                                                     2        0.9264190       12.99839580    0.00000000
                                      P - F
                                                     0       43.4927750        5.00000000    0.00000000
                                                     1       20.8692669       20.74355890    0.00000000
                                                     2       21.7118378       90.30271580    0.00000000
                                                     2        6.3616915       74.66103160    0.00000000
                                                     2        1.2291195        9.88944240    0.00000000
                                      D - F
                                                     2       13.5851800       -4.84903590    0.00000000
                                                     2        9.8373050        3.69133790    0.00000000
                                                     2        0.8373113       -0.50373190    0.00000000
   44          8
                                   No pseudopotential on this center.
   45          1
                                   No pseudopotential on this center.
   46          1
                                   No pseudopotential on this center.
   47          8
                                   No pseudopotential on this center.
   48          1
                                   No pseudopotential on this center.
   49          1
                                   No pseudopotential on this center.
   50          8
                                   No pseudopotential on this center.
   51          1
                                   No pseudopotential on this center.
   52          1
                                   No pseudopotential on this center.
   53          1
                                   No pseudopotential on this center.
   54          1
                                   No pseudopotential on this center.
   55          1
                                   No pseudopotential on this center.
   56          1
                                   No pseudopotential on this center.
   57          1
                                   No pseudopotential on this center.
   58          6
                                   No pseudopotential on this center.
   59          6
                                   No pseudopotential on this center.
   60          6
                                   No pseudopotential on this center.
   61          6
                                   No pseudopotential on this center.
   62          6
                                   No pseudopotential on this center.
   63          6
                                   No pseudopotential on this center.
   64          1
                                   No pseudopotential on this center.
   65          1
                                   No pseudopotential on this center.
   66          1
                                   No pseudopotential on this center.
   67          8
                                   No pseudopotential on this center.
   68          6
                                   No pseudopotential on this center.
   69          8
                                   No pseudopotential on this center.
   70          6
                                   No pseudopotential on this center.
   71          1
                                   No pseudopotential on this center.
   72          1
                                   No pseudopotential on this center.
   73          1
                                   No pseudopotential on this center.
   74          6
                                   No pseudopotential on this center.
   75          6
                                   No pseudopotential on this center.
   76          1
                                   No pseudopotential on this center.
   77          6
                                   No pseudopotential on this center.
   78          6
                                   No pseudopotential on this center.
   79          1
                                   No pseudopotential on this center.
   80          1
                                   No pseudopotential on this center.
   81          1
                                   No pseudopotential on this center.
   82          8
                                   No pseudopotential on this center.
   83          8
                                   No pseudopotential on this center.
   84          8
                                   No pseudopotential on this center.
   85          1
                                   No pseudopotential on this center.
   86          1
                                   No pseudopotential on this center.
   87          8
                                   No pseudopotential on this center.
   88          1
                                   No pseudopotential on this center.
   89          1
                                   No pseudopotential on this center.
 ======================================================================================================
 There are  1178 symmetry adapted cartesian basis functions of A   symmetry.
 There are  1131 symmetry adapted basis functions of A   symmetry.
  1131 basis functions,  1958 primitive gaussians,  1178 cartesian basis functions
   176 alpha electrons      176 beta electrons
       nuclear repulsion energy      6843.0601370653 Hartrees.
 NAtoms=   89 NActive=   89 NUniq=   89 SFac= 1.00D+00 NAtFMM=   60 NAOKFM=T Big=T
 Integral buffers will be    131072 words long.
 Raffenetti 2 integral format.
 Two-electron integral symmetry is turned on.
 Force inversion solution in PCM.
 ------------------------------------------------------------------------------
 Polarizable Continuum Model (PCM)
 =================================
 Model                : PCM.
 Atomic radii         : UFF (Universal Force Field).
 Polarization charges : Total charges.
 Charge compensation  : None.
 Solution method      : Matrix inversion.
 Cavity type          : Scaled VdW (van der Waals Surface) (Alpha=1.100).
 Cavity algorithm     : GePol (No added spheres)
                        Default sphere list used, NSphG=   89.
                        Lebedev-Laikov grids with approx.  5.0 points / Ang**2.
                        Smoothing algorithm: York/Karplus (Gamma=1.0000).
                        Polarization charges: spherical gaussians, with
                                              point-specific exponents (IZeta= 3).
                        Self-potential: point-specific (ISelfS= 7).
                        Self-field    : sphere-specific E.n sum rule (ISelfD= 2).
 1st derivatives      : Analytical E(r).r(x)/FMM algorithm (CHGder, D1EAlg=3).
                        Cavity 1st derivative terms included.
 2nd derivatives      : Analytical E(r).r(xy)/FMM algorithm (CHGder, D2EAlg=3).
                        Cavity 2nd derivative terms included.
 Solvent              : Water, Eps=  78.355300 Eps(inf)=   1.777849
 ------------------------------------------------------------------------------
 One-electron integrals computed using PRISM.
   1 Symmetry operations used in ECPInt.
 ECPInt:  NShTT=  170236 NPrTT=  582707 LenC2=  131624 LenP2D=  282685.
 LDataN:  DoStor=T MaxTD1= 5 Len=  102
 Number of processors reduced to  53 by ecpmxn.
 NBasis=  1131 RedAO= T EigKep=  5.89D-06  NBF=  1131
 NBsUse=  1131 1.00D-06 EigRej= -1.00D+00 NBFU=  1131
 ExpMin= 3.51D-02 ExpMax= 2.70D+04 ExpMxC= 9.22D+02 IAcc=3 IRadAn=         5 AccDes= 0.00D+00
 Harris functional with IExCor= 1009 and IRadAn=       5 diagonalized for initial guess.
 HarFok:  IExCor= 1009 AccDes= 0.00D+00 IRadAn=         5 IDoV= 1 UseB2=F ITyADJ=14
 ICtDFT=  3500011 ScaDFX=  1.000000  1.000000  1.000000  1.000000
 FoFCou: FMM=F IPFlag=           0 FMFlag=      100000 FMFlg1=        2001
         NFxFlg=           0 DoJE=T BraDBF=F KetDBF=T FulRan=T
         wScrn=  0.000000 ICntrl=       500 IOpCl=  0 I1Cent=   200000004 NGrid=           0
         NMat0=    1 NMatS0=      1 NMatT0=    0 NMatD0=    1 NMtDS0=    0 NMtDT0=    0
 Petite list used in FoFCou.
 Requested convergence on RMS density matrix=1.00D-08 within 128 cycles.
 Requested convergence on MAX density matrix=1.00D-06.
 Requested convergence on             energy=1.00D-06.
 No special actions if energy rises.
 Inv3:  Mode=1 IEnd=    90849027.
 Iteration    1 A*A^-1 deviation from unit magnitude is 3.55D-15 for   5205.
 Iteration    1 A*A^-1 deviation from orthogonality  is 5.77D-15 for   3769    508.
 Iteration    1 A^-1*A deviation from unit magnitude is 3.33D-15 for   5205.
 Iteration    1 A^-1*A deviation from orthogonality  is 8.76D-15 for   4678   4168.
 Error on total polarization charges =  0.01982
 SCF Done:  E(RM062X) =  -2314.32767078     A.U. after   15 cycles
            NFock= 15  Conv=0.32D-08     -V/T= 1.9834
 DoSCS=F DFT=T ScalE2(SS,OS)=  1.000000  1.000000
 Range of M.O.s used for correlation:     1  1131
 NBasis=  1131 NAE=   176 NBE=   176 NFC=     0 NFV=     0
 NROrb=   1131 NOA=   176 NOB=   176 NVA=   955 NVB=   955

 **** Warning!!: The largest alpha MO coefficient is  0.53018010D+02

 PrsmSu:  requested number of processors reduced to:  44 ShMem   1 Linda.
   1 Symmetry operations used in ECPInt.
 ECPInt:  NShTT=  170236 NPrTT=  582707 LenC2=  131624 LenP2D=  282685.
 LDataN:  DoStor=T MaxTD1= 6 Len=  172
 Number of processors reduced to   6 by ecpmxn.
 Symmetrizing basis deriv contribution to polar:
 IMax=3 JMax=2 DiffMx= 0.00D+00
 G2DrvN: will do    45 centers at a time, making    2 passes.
 Calling FoFCou, ICntrl=  3107 FMM=T I1Cent=   0 AccDes= 0.00D+00.
 Calling FoFCou, ICntrl=  3107 FMM=T I1Cent=   0 AccDes= 0.00D+00.
 NEqPCM:  Using equilibrium solvation (IEInf=0, Eps=  78.3553, EpsInf=   1.7778)
 G2PCM: DoFxE=T DoFxN=T DoGrad=T DoDP/DQ/DG/TGxP=FFFF NFrqRd=   0 IEInf=0 SqF1=F DoCFld=F IF1Alg=4.
 End of G2Drv F.D. properties file   721 does not exist.
 End of G2Drv F.D. properties file   722 does not exist.
 End of G2Drv F.D. properties file   788 does not exist.
          IDoAtm=11111111111111111111111111111111111111111111111111
          IDoAtm=111111111111111111111111111111111111111
 NEqPCM:  Using equilibrium solvation (IEInf=0, Eps=  78.3553, EpsInf=   1.7778)
          Differentiating once with respect to electric field.
                with respect to dipole field.
          Differentiating once with respect to nuclear coordinates.
 CalDSu exits because no D1Ps are significant.
          There are   270 degrees of freedom in the 1st order CPHF.  IDoFFX=6 NUNeed=     3.
    270 vectors produced by pass  0 Test12= 1.68D-13 1.00D-09 XBig12= 2.65D+02 7.83D+00.
 AX will form    69 AO Fock derivatives at one time.
    270 vectors produced by pass  1 Test12= 1.68D-13 1.00D-09 XBig12= 2.44D+01 4.17D-01.
    267 vectors produced by pass  2 Test12= 1.68D-13 1.00D-09 XBig12= 4.33D-01 7.35D-02.
    267 vectors produced by pass  3 Test12= 1.68D-13 1.00D-09 XBig12= 4.23D-03 5.87D-03.
    267 vectors produced by pass  4 Test12= 1.68D-13 1.00D-09 XBig12= 2.77D-05 2.79D-04.
    267 vectors produced by pass  5 Test12= 1.68D-13 1.00D-09 XBig12= 1.37D-07 1.99D-05.
    194 vectors produced by pass  6 Test12= 1.68D-13 1.00D-09 XBig12= 5.41D-10 8.69D-07.
     29 vectors produced by pass  7 Test12= 1.68D-13 1.00D-09 XBig12= 1.89D-12 7.62D-08.
      4 vectors produced by pass  8 Test12= 1.68D-13 1.00D-09 XBig12= 1.05D-14 6.14D-09.
      4 vectors produced by pass  9 Test12= 1.68D-13 1.00D-09 XBig12= 3.34D-15 2.50D-09.
      4 vectors produced by pass 10 Test12= 1.68D-13 1.00D-09 XBig12= 7.36D-15 4.82D-09.
      4 vectors produced by pass 11 Test12= 1.68D-13 1.00D-09 XBig12= 2.31D-15 1.59D-09.
      4 vectors produced by pass 12 Test12= 1.68D-13 1.00D-09 XBig12= 2.20D-15 2.08D-09.
      4 vectors produced by pass 13 Test12= 1.68D-13 1.00D-09 XBig12= 6.88D-15 3.27D-09.
      4 vectors produced by pass 14 Test12= 1.68D-13 1.00D-09 XBig12= 4.70D-15 2.66D-09.
      4 vectors produced by pass 15 Test12= 1.68D-13 1.00D-09 XBig12= 6.93D-15 2.83D-09.
      4 vectors produced by pass 16 Test12= 1.68D-13 1.00D-09 XBig12= 4.96D-15 2.42D-09.
      4 vectors produced by pass 17 Test12= 1.68D-13 1.00D-09 XBig12= 3.65D-15 2.45D-09.
      3 vectors produced by pass 18 Test12= 1.68D-13 1.00D-09 XBig12= 3.10D-15 2.71D-09.
      3 vectors produced by pass 19 Test12= 1.68D-13 1.00D-09 XBig12= 1.85D-15 2.01D-09.
      3 vectors produced by pass 20 Test12= 1.68D-13 1.00D-09 XBig12= 3.58D-15 2.37D-09.
      3 vectors produced by pass 21 Test12= 1.68D-13 1.00D-09 XBig12= 3.33D-15 2.09D-09.
      3 vectors produced by pass 22 Test12= 1.68D-13 1.00D-09 XBig12= 3.31D-15 2.97D-09.
      3 vectors produced by pass 23 Test12= 1.68D-13 1.00D-09 XBig12= 2.26D-15 1.59D-09.
      2 vectors produced by pass 24 Test12= 1.68D-13 1.00D-09 XBig12= 3.02D-15 2.56D-09.
 InvSVY:  IOpt=1 It=  1 EMax= 1.60D-14
 Solved reduced A of dimension  1891 with   270 vectors.
 Isotropic polarizability for W=    0.000000      561.53 Bohr**3.
 End of Minotr F.D. properties file   721 does not exist.
 End of Minotr F.D. properties file   722 does not exist.
 End of Minotr F.D. properties file   788 does not exist.

 **********************************************************************

            Population analysis using the SCF density.

 **********************************************************************

 Orbital symmetries:
       Occupied  (A) (A) (A) (A) (A) (A) (A) (A) (A) (A) (A) (A)
                 (A) (A) (A) (A) (A) (A) (A) (A) (A) (A) (A) (A)
                 (A) (A) (A) (A) (A) (A) (A) (A) (A) (A) (A) (A)
                 (A) (A) (A) (A) (A) (A) (A) (A) (A) (A) (A) (A)
                 (A) (A) (A) (A) (A) (A) (A) (A) (A) (A) (A) (A)
                 (A) (A) (A) (A) (A) (A) (A) (A) (A) (A) (A) (A)
                 (A) (A) (A) (A) (A) (A) (A) (A) (A) (A) (A) (A)
                 (A) (A) (A) (A) (A) (A) (A) (A) (A) (A) (A) (A)
                 (A) (A) (A) (A) (A) (A) (A) (A) (A) (A) (A) (A)
                 (A) (A) (A) (A) (A) (A) (A) (A) (A) (A) (A) (A)
                 (A) (A) (A) (A) (A) (A) (A) (A) (A) (A) (A) (A)
                 (A) (A) (A) (A) (A) (A) (A) (A) (A) (A) (A) (A)
                 (A) (A) (A) (A) (A) (A) (A) (A) (A) (A) (A) (A)
                 (A) (A) (A) (A) (A) (A) (A) (A) (A) (A) (A) (A)
                 (A) (A) (A) (A) (A) (A) (A) (A)
       Virtual   (A) (A) (A) (A) (A) (A) (A) (A) (A) (A) (A) (A)
                 (A) (A) (A) (A) (A) (A) (A) (A) (A) (A) (A) (A)
                 (A) (A) (A) (A) (A) (A) (A) (A) (A) (A) (A) (A)
                 (A) (A) (A) (A) (A) (A) (A) (A) (A) (A) (A) (A)
                 (A) (A) (A) (A) (A) (A) (A) (A) (A) (A) (A) (A)
                 (A) (A) (A) (A) (A) (A) (A) (A) (A) (A) (A) (A)
                 (A) (A) (A) (A) (A) (A) (A) (A) (A) (A) (A) (A)
                 (A) (A) (A) (A) (A) (A) (A) (A) (A) (A) (A) (A)
                 (A) (A) (A) (A) (A) (A) (A) (A) (A) (A) (A) (A)
                 (A) (A) (A) (A) (A) (A) (A) (A) (A) (A) (A) (A)
                 (A) (A) (A) (A) (A) (A) (A) (A) (A) (A) (A) (A)
                 (A) (A) (A) (A) (A) (A) (A) (A) (A) (A) (A) (A)
                 (A) (A) (A) (A) (A) (A) (A) (A) (A) (A) (A) (A)
                 (A) (A) (A) (A) (A) (A) (A) (A) (A) (A) (A) (A)
                 (A) (A) (A) (A) (A) (A) (A) (A) (A) (A) (A) (A)
                 (A) (A) (A) (A) (A) (A) (A) (A) (A) (A) (A) (A)
                 (A) (A) (A) (A) (A) (A) (A) (A) (A) (A) (A) (A)
                 (A) (A) (A) (A) (A) (A) (A) (A) (A) (A) (A) (A)
                 (A) (A) (A) (A) (A) (A) (A) (A) (A) (A) (A) (A)
                 (A) (A) (A) (A) (A) (A) (A) (A) (A) (A) (A) (A)
                 (A) (A) (A) (A) (A) (A) (A) (A) (A) (A) (A) (A)
                 (A) (A) (A) (A) (A) (A) (A) (A) (A) (A) (A) (A)
                 (A) (A) (A) (A) (A) (A) (A) (A) (A) (A) (A) (A)
                 (A) (A) (A) (A) (A) (A) (A) (A) (A) (A) (A) (A)
[...]
 Alpha virt. eigenvalues --    2.87448   2.88237   2.88851   2.88947   2.89071
 Alpha virt. eigenvalues --    2.89317   2.90004   2.90616   2.90996   2.91351
 Alpha virt. eigenvalues --    2.91473   2.91892   2.92464   2.92646   2.93030
 Alpha virt. eigenvalues --    2.93243   2.93524   2.93612   2.93973   2.94421
 Alpha virt. eigenvalues --    2.94910   2.95377   2.95562   2.96067   2.96238
 Alpha virt. eigenvalues --    2.96561   2.96906   2.97215   2.98015   2.98255
 Alpha virt. eigenvalues --    2.98359   2.99036   2.99287   2.99544   3.00088
 Alpha virt. eigenvalues --    3.00310   3.00519   3.01068   3.01202   3.01408
 Alpha virt. eigenvalues --    3.01514   3.02114   3.02326   3.02993   3.03461
 Alpha virt. eigenvalues --    3.03618   3.03939   3.04146   3.04981   3.05201
 Alpha virt. eigenvalues --    3.05394   3.05543   3.06093   3.06304   3.06736
 Alpha virt. eigenvalues --    3.07151   3.07281   3.07701   3.07923   3.08326
 Alpha virt. eigenvalues --    3.08611   3.08737   3.09194   3.09456   3.09884
 Alpha virt. eigenvalues --    3.10123   3.10509   3.10932   3.11216   3.11467
 Alpha virt. eigenvalues --    3.11742   3.12178   3.12649   3.12715   3.12878
 Alpha virt. eigenvalues --    3.13535   3.13598   3.14226   3.14565   3.15189
 Alpha virt. eigenvalues --    3.15324   3.15557   3.15743   3.16003   3.16296
 Alpha virt. eigenvalues --    3.17044   3.17169   3.17623   3.17835   3.18183
 Alpha virt. eigenvalues --    3.18304   3.18710   3.19297   3.19582   3.19798
 Alpha virt. eigenvalues --    3.19947   3.20469   3.20763   3.21080   3.21125
 Alpha virt. eigenvalues --    3.21697   3.22292   3.22834   3.23077   3.23554
 Alpha virt. eigenvalues --    3.23960   3.24224   3.24350   3.24704   3.25329
 Alpha virt. eigenvalues --    3.25687   3.25891   3.26102   3.26437   3.26813
 Alpha virt. eigenvalues --    3.26974   3.27139   3.27386   3.27445   3.27878
 Alpha virt. eigenvalues --    3.28824   3.28874   3.29097   3.29670   3.29976
 Alpha virt. eigenvalues --    3.30377   3.30781   3.31185   3.31535   3.32113
 Alpha virt. eigenvalues --    3.32315   3.32500   3.32865   3.33295   3.33559
 Alpha virt. eigenvalues --    3.33924   3.34072   3.34182   3.34645   3.34803
 Alpha virt. eigenvalues --    3.34938   3.35415   3.35672   3.35798   3.36058
 Alpha virt. eigenvalues --    3.36299   3.37065   3.37102   3.37346   3.37630
 Alpha virt. eigenvalues --    3.38080   3.38427   3.39284   3.39464   3.39677
 Alpha virt. eigenvalues --    3.40356   3.40667   3.40837   3.41285   3.41862
 Alpha virt. eigenvalues --    3.42222   3.42616   3.42752   3.42895   3.43434
 Alpha virt. eigenvalues --    3.43638   3.43865   3.44083   3.44793   3.45509
 Alpha virt. eigenvalues --    3.45653   3.45847   3.46064   3.46494   3.46871
 Alpha virt. eigenvalues --    3.47021   3.47139   3.47410   3.47901   3.47974
 Alpha virt. eigenvalues --    3.48289   3.48876   3.49223   3.49532   3.50125
 Alpha virt. eigenvalues --    3.50330   3.51171   3.51204   3.51581   3.52573
 Alpha virt. eigenvalues --    3.53108   3.53219   3.53806   3.54042   3.54262
 Alpha virt. eigenvalues --    3.54759   3.54823   3.55222   3.55640   3.55896
 Alpha virt. eigenvalues --    3.56659   3.57139   3.57293   3.57811   3.58201
 Alpha virt. eigenvalues --    3.58676   3.58815   3.59728   3.60080   3.60574
 Alpha virt. eigenvalues --    3.60943   3.61502   3.61919   3.62106   3.62275
 Alpha virt. eigenvalues --    3.63373   3.63750   3.64014   3.64593   3.65286
 Alpha virt. eigenvalues --    3.65783   3.66369   3.67517   3.67767   3.68336
 Alpha virt. eigenvalues --    3.68860   3.69545   3.70046   3.70295   3.70539
 Alpha virt. eigenvalues --    3.71047   3.71325   3.71654   3.72336   3.73148
 Alpha virt. eigenvalues --    3.73713   3.74123   3.74833   3.75570   3.75963
 Alpha virt. eigenvalues --    3.76985   3.77581   3.77767   3.78282   3.78428
 Alpha virt. eigenvalues --    3.78884   3.79604   3.79967   3.80217   3.80352
 Alpha virt. eigenvalues --    3.81227   3.81825   3.81987   3.82310   3.82489
 Alpha virt. eigenvalues --    3.83410   3.84401   3.84860   3.85943   3.86558
 Alpha virt. eigenvalues --    3.88169   3.89260   3.89830   3.90586   3.91115
 Alpha virt. eigenvalues --    3.91861   3.92713   3.93423   3.93500   3.94232
 Alpha virt. eigenvalues --    3.94765   3.95194   3.95544   3.95827   3.96696
 Alpha virt. eigenvalues --    3.97457   3.97893   3.98239   3.98427   3.98827
 Alpha virt. eigenvalues --    3.98995   3.99313   3.99475   4.00187   4.00742
 Alpha virt. eigenvalues --    4.01306   4.02067   4.02512   4.02686   4.03558
 Alpha virt. eigenvalues --    4.03785   4.05262   4.06170   4.07587   4.08161
 Alpha virt. eigenvalues --    4.10229   4.11360   4.11925   4.12404   4.12769
 Alpha virt. eigenvalues --    4.13391   4.13768   4.15303   4.15406   4.16139
 Alpha virt. eigenvalues --    4.16367   4.16972   4.17479   4.18151   4.18972
 Alpha virt. eigenvalues --    4.19672   4.20369   4.21027   4.21308   4.22089
 Alpha virt. eigenvalues --    4.22849   4.24511   4.25690   4.26016   4.27751
 Alpha virt. eigenvalues --    4.28279   4.28903   4.29910   4.30985   4.32399
 Alpha virt. eigenvalues --    4.33275   4.33566   4.34594   4.35299   4.36928
 Alpha virt. eigenvalues --    4.36937   4.38347   4.38429   4.38953   4.39530
 Alpha virt. eigenvalues --    4.40085   4.40680   4.41546   4.42429   4.43071
 Alpha virt. eigenvalues --    4.43543   4.44344   4.44886   4.45513   4.46386
 Alpha virt. eigenvalues --    4.46504   4.47973   4.48880   4.49671   4.49957
 Alpha virt. eigenvalues --    4.51107   4.51449   4.52131   4.53852   4.54623
 Alpha virt. eigenvalues --    4.55132   4.56820   4.57064   4.58022   4.58483
 Alpha virt. eigenvalues --    4.59731   4.60624   4.61084   4.61701   4.61835
 Alpha virt. eigenvalues --    4.62256   4.63422   4.64578   4.64918   4.65161
 Alpha virt. eigenvalues --    4.66026   4.66152   4.67293   4.67868   4.68431
 Alpha virt. eigenvalues --    4.68754   4.69859   4.70165   4.70373   4.70976
 Alpha virt. eigenvalues --    4.72081   4.73116   4.75456   4.76421   4.77185
 Alpha virt. eigenvalues --    4.78017   4.78458   4.79958   4.80241   4.80881
 Alpha virt. eigenvalues --    4.82552   4.83470   4.83865   4.84021   4.84509
 Alpha virt. eigenvalues --    4.84714   4.85651   4.86004   4.86728   4.87620
 Alpha virt. eigenvalues --    4.88340   4.88827   4.89526   4.89940   4.90203
 Alpha virt. eigenvalues --    4.90919   4.91599   4.94029   4.95614   4.98053
 Alpha virt. eigenvalues --    4.98566   4.98779   4.99149   4.99738   5.00787
 Alpha virt. eigenvalues --    5.01489   5.03797   5.04446   5.05937   5.06841
 Alpha virt. eigenvalues --    5.09932   5.10658   5.11246   5.11827   5.12472
 Alpha virt. eigenvalues --    5.12786   5.14983   5.15524   5.15851   5.16308
 Alpha virt. eigenvalues --    5.17668   5.17761   5.17843   5.18684   5.19596
 Alpha virt. eigenvalues --    5.19752   5.20560   5.21795   5.21839   5.22242
 Alpha virt. eigenvalues --    5.22318   5.22882   5.23744   5.24065   5.25075
 Alpha virt. eigenvalues --    5.26076   5.26405   5.26523   5.27337   5.27878
 Alpha virt. eigenvalues --    5.28535   5.29557   5.30171   5.32358   5.33189
 Alpha virt. eigenvalues --    5.34016   5.34150   5.34381   5.34998   5.35179
 Alpha virt. eigenvalues --    5.35888   5.36063   5.36496   5.36709   5.39595
 Alpha virt. eigenvalues --    5.39863   5.40044   5.40258   5.40672   5.41144
 Alpha virt. eigenvalues --    5.41657   5.41853   5.42301   5.42503   5.43285
 Alpha virt. eigenvalues --    5.43684   5.44043   5.44699   5.44943   5.45314
 Alpha virt. eigenvalues --    5.46076   5.46431   5.47768   5.47855   5.48925
 Alpha virt. eigenvalues --    5.49780   5.50487   5.50613   5.51233   5.51621
 Alpha virt. eigenvalues --    5.52512   5.53732   5.54539   5.55074   5.56787
 Alpha virt. eigenvalues --    5.57181   5.57806   5.58303   5.59104   5.60940
 Alpha virt. eigenvalues --    5.61459   5.62103   5.62383   5.63364   5.64770
 Alpha virt. eigenvalues --    5.67968   5.75799   5.76953   5.78557   5.83567
 Alpha virt. eigenvalues --    5.84003   5.85174   5.85549   5.86663   5.89219
 Alpha virt. eigenvalues --    5.89413   5.89724   5.90360   5.93862   5.96312
 Alpha virt. eigenvalues --    5.97602   5.98745   5.98862   5.99569   5.99906
 Alpha virt. eigenvalues --    6.00335   6.01682   6.01999   6.06348   6.06963
 Alpha virt. eigenvalues --    6.10818   6.13166   6.16709   6.17406   6.17560
 Alpha virt. eigenvalues --    6.18722   6.22264   6.24185   6.27714   6.29038
 Alpha virt. eigenvalues --    6.30557   6.32051   6.34077   6.35157   6.35942
 Alpha virt. eigenvalues --    6.36349   6.36376   6.37495   6.38439   6.39354
 Alpha virt. eigenvalues --    6.40856   6.41652   6.41712   6.43615   6.44814
 Alpha virt. eigenvalues --    6.45073   6.47877   6.48334   6.49787   6.51054
 Alpha virt. eigenvalues --    6.53287   6.53987   6.54843   6.56755   6.60084
 Alpha virt. eigenvalues --    6.60761   6.64016   6.69638   6.73003   6.75227
 Alpha virt. eigenvalues --    6.76702   6.77511   6.78511   6.80359   6.80439
 Alpha virt. eigenvalues --    6.82044   6.82954   6.84918   6.85247   6.86111
 Alpha virt. eigenvalues --    6.87099   6.88017   6.92041   6.94414   6.97520
 Alpha virt. eigenvalues --    6.97779   6.99157   7.00023   7.01391   7.02926
 Alpha virt. eigenvalues --    7.05107   7.07370   7.07473   7.08945   7.09682
 Alpha virt. eigenvalues --    7.11255   7.11581   7.13690   7.14678   7.15575
 Alpha virt. eigenvalues --    7.30307   7.32695   7.33765   7.37221   7.45832
 Alpha virt. eigenvalues --   22.48282  22.52675  22.59379  22.60739  22.63050
 Alpha virt. eigenvalues --   22.63561  22.65099  22.67822  22.71539  22.78261
 Alpha virt. eigenvalues --   22.80191  22.81036  22.85106  22.89627  22.97825
 Alpha virt. eigenvalues --   23.01257  23.05810  23.06983  23.11175  23.17742
 Alpha virt. eigenvalues --   23.26888  23.28335  23.29581  23.32090  23.42727
 Alpha virt. eigenvalues --   23.44647  23.51098  23.68998  32.41414  32.42510
 Alpha virt. eigenvalues --   32.63427  32.65203  32.73554  32.77880  43.69507
 Alpha virt. eigenvalues --   43.70012  43.78685  43.89735  44.03118  44.07652
 Alpha virt. eigenvalues --   44.16500  44.20135  44.28324  44.43377  44.61974
 Alpha virt. eigenvalues --   69.26722  69.34317  69.39705  89.02713
          Condensed to atoms (all electrons):
 Mulliken charges:
               1
     1  C   -0.501301
     2  H    0.163106
     3  C   -0.286772
     4  H    0.162538
     5  H    0.161170
     6  N   -0.371892
     7  C    0.022349
     8  C    0.115477
     9  H    0.063782
    10  N   -0.466406
    11  H    0.395888
    12  C   -0.185377
    13  H    0.187951
    14  C   -0.559091
    15  H    0.184472
    16  C   -0.195189
    17  H    0.181826
    18  H    0.081678
    19  N   -0.274133
    20  C    0.076394
    21  C    0.077934
    22  H    0.205901
    23  N   -0.244348
    24  H    0.317735
    25  C   -0.121355
    26  H    0.225915
    27  C   -0.319225
    28  H    0.182463
    29  C   -0.316383
    30  H    0.123231
    31  H    0.203128
    32  N   -0.279902
    33  C    0.039910
    34  C    0.067095
    35  H    0.224454
    36  N   -0.245189
    37  H    0.321229
    38  C   -0.059690
    39  H    0.215254
    40  C    0.413922
    41  O   -0.463115
    42  O   -0.443710
    43  Zn   0.916115
    44  O   -0.703008
    45  H    0.403295
    46  H    0.411126
    47  O   -0.458915
    48  H    0.371094
    49  H    0.407398
    50  O   -0.769488
    51  H    0.410863
    52  H    0.409785
    53  H    0.164070
    54  H    0.161925
    55  H    0.183817
    56  H    0.189449
    57  H    0.214431
    58  C    0.327611
    59  C   -0.346297
    60  C   -0.220324
    61  C    0.130480
    62  C    0.120000
    63  C   -0.214225
    64  H    0.223795
    65  H    0.220189
    66  H    0.145678
    67  O   -0.507196
    68  C    0.406654
    69  O   -0.483760
    70  C   -0.483636
    71  H    0.212927
    72  H    0.208527
    73  H    0.192920
    74  C    0.364431
    75  C   -0.244459
    76  H    0.190028
    77  C    0.013700
    78  C   -0.534446
    79  H    0.199957
    80  H    0.192951
    81  H    0.173974
    82  O   -0.458061
    83  O   -0.248735
    84  O   -0.806617
    85  H    0.418905
    86  H    0.384916
    87  O   -0.786770
    88  H    0.394886
    89  H    0.418318
 Sum of Mulliken charges =   1.00000
 Mulliken charges with hydrogens summed into heavy atoms:
               1
     1  C   -0.012202
     3  C    0.036935
     6  N   -0.371892
     7  C    0.022349
     8  C    0.179258
    10  N   -0.466406
    12  C    0.002574
    14  C   -0.001353
    16  C    0.068315
    19  N   -0.274133
    20  C    0.076394
    21  C    0.283835
    23  N    0.073387
    25  C    0.104560
    27  C    0.077670
    29  C    0.009976
    32  N   -0.279902
    33  C    0.039910
    34  C    0.291549
    36  N    0.076040
    38  C    0.155563
    40  C    0.413922
    41  O   -0.463115
    42  O   -0.032847
    43  Zn   0.916115
    44  O    0.111412
    47  O   -0.087821
    50  O    0.047696
    58  C    0.327611
    59  C   -0.122502
    60  C   -0.000135
    61  C    0.130480
    62  C    0.120000
    63  C   -0.068547
    67  O   -0.088878
    68  C    0.406654
    69  O   -0.483760
    70  C    0.130737
    74  C    0.364431
    75  C   -0.054431
    77  C    0.013700
    78  C    0.032436
    82  O   -0.458061
    83  O   -0.248735
    84  O   -0.025812
    87  O    0.027022
 Electronic spatial extent (au):  <R**2>=          25817.0394
 Charge=              1.0000 electrons
 Dipole moment (field-independent basis, Debye):
    X=             22.2132    Y=            -14.0318    Z=              0.0285  Tot=             26.2739
 Quadrupole moment (field-independent basis, Debye-Ang):
   XX=           -260.9137   YY=           -212.4167   ZZ=           -253.4203
   XY=             60.3561   XZ=            -37.6914   YZ=            -10.2270
 Traceless Quadrupole moment (field-independent basis, Debye-Ang):
   XX=            -18.6635   YY=             29.8336   ZZ=            -11.1701
   XY=             60.3561   XZ=            -37.6914   YZ=            -10.2270
 Octapole moment (field-independent basis, Debye-Ang**2):
  XXX=            754.2670  YYY=           -275.3680  ZZZ=            136.3955  XYY=            194.7303
  XXY=           -118.7453  XXZ=           -250.3245  XZZ=            120.8902  YZZ=            -71.3648
  YYZ=             -8.3086  XYZ=             38.6544
 Hexadecapole moment (field-independent basis, Debye-Ang**3):
 XXXX=         -20773.5349 YYYY=          -7279.0387 ZZZZ=          -5830.0959 XXXY=           1880.3720
 XXXZ=           -864.3400 YYYX=            180.5969 YYYZ=            112.5898 ZZZX=           -141.2391
 ZZZY=           -551.7790 XXYY=          -3552.8057 XXZZ=          -4266.3003 YYZZ=          -1975.8076
 XXYZ=           -101.0852 YYXZ=           -290.2369 ZZXY=             40.0060
 N-N= 7.181557503982D+03 E-N=-2.014221023781D+04  KE= 2.392159632495D+03
 1\1\GINC-C73N04\SP\RM062X\GenECP\C28H43N6O11Zn1(1+)\DONGH_N\12-Aug-202
 4\0\\# geom(allcheck,modredundant) genecp scrf(SMD) m062x\\Title Card 
 Required\\1,1\C,0,1.232304,4.46132,3.573666\H,0,1.9254979616,4.5069977
 588,4.4128575395\C,0,1.4403586274,3.1707907669,2.7758553919\H,0,1.2990
 507147,2.3068760678,3.4337118878\H,0,2.4799630977,3.1213035485,2.43820
 38256\N,0,0.6337050331,2.0586098462,0.6427772857\C,0,0.5192179722,3.04
 98252032,1.5977386466\C,0,-0.3842517588,2.2761550587,-0.2123397615\H,0
 ,-0.580604449,1.6383938908,-1.0631981787\N,0,-1.1338363155,3.320792745
 1,0.1082247973\H,0,-2.2998492436,3.8936735438,-0.9089444101\C,0,-0.565
 1130055,3.8192547549,1.2546603566\H,0,-0.9611932915,4.6903530328,1.751
 9420809\C,0,-2.989783,-0.556549,2.319986\H,0,-3.0201836556,-0.38422822
 67,3.3972202352\C,0,-1.6064783298,-0.2261445652,1.7528625529\H,0,-1.39
 53819894,0.8397825783,1.8802731404\H,0,-1.5953833309,-0.4095366753,0.6
 706825582\N,0,0.8311642205,-0.9010030206,2.0718712261\C,0,-0.514332010
 3,-1.0220709641,2.3975144256\C,0,1.4917823788,-1.7661037858,2.82058213
 9\H,0,2.5549259959,-1.9352860983,2.7952909862\N,0,0.6458301657,-2.4315
 548025,3.6120941871\H,0,0.9049921124,-3.1428634156,4.2792688522\C,0,-0
 .6282403866,-1.9778217348,3.3620394707\H,0,-1.4845142873,-2.3694633873
 ,3.8806971773\C,0,5.311881,-2.096514,-0.823408\H,0,6.3438834354,-1.763
 7235928,-0.7444885869\C,0,4.483928078,-1.1206805788,-1.682653823\H,0,3
 .4575904403,-1.4827321896,-1.7465077254\H,0,4.8818222215,-1.1363153076
 ,-2.6971262182\N,0,3.5274634281,0.8554702749,-0.3618062663\C,0,4.48573
 39635,0.2953349414,-1.197026805\C,0,3.843039249,2.1339160799,-0.230806
 6029\H,0,3.2837893296,2.8648780908,0.3296407688\N,0,4.9502635001,2.416
 6825522,-0.9230493188\H,0,5.3854214835,3.3259249222,-0.9858083204\C,0,
 5.371410222,1.2713768757,-1.5455655304\H,0,6.2364875404,1.2467496394,-
 2.1842719824\C,0,4.7165838989,-2.1549493726,0.5634302464\O,0,5.2426477
 063,-1.7054493107,1.5505002556\O,0,3.49477674,-2.6914138457,0.65518528
 15\Zn,0,1.7630894332,0.3218508221,0.6699095163\O,0,0.0365573065,-2.895
 0582794,-0.1593137522\H,0,-0.8762172657,-3.1861427032,-0.268249948\H,0
 ,0.620471174,-3.5787841386,-0.5333242042\O,0,0.7516281329,-0.630920735
 1,-1.0659716192\H,0,0.4133205019,-1.5540336176,-0.7512936791\H,0,1.925
 4531884,-3.2622207645,-2.2579555053\O,0,2.2442045683,-3.8033010505,-1.
 5125710675\H,0,3.1635186863,-3.0738542682,-0.1882238416\H,0,2.56875374
 98,-4.6347979334,-1.8770346715\H,0,1.396262714,5.3368090734,2.94374326
 18\H,0,0.2169426165,4.5145139478,3.9693190645\H,0,-3.7442374483,0.0796
 399334,1.8592164688\H,0,-3.2573128367,-1.5976378278,2.129669794\H,0,5.
 2832604984,-3.0878354255,-1.279139601\C,0,-2.3082504452,-0.2520226209,
 -2.2844878084\C,0,-2.309064479,-1.6444020688,-2.1002832926\C,0,-3.2742
 556955,-2.2315797616,-1.3130939927\C,0,-4.2661552188,-1.4647212203,-0.
 6814890031\C,0,-4.2285851801,-0.0816813109,-0.8748222008\C,0,-3.262921
 2337,0.5368557656,-1.6535380466\H,0,-1.5578065626,-2.2336091937,-2.611
 7574549\H,0,-3.286519289,-3.308574345,-1.1973060206\H,0,-3.2703826152,
 1.6141746125,-1.7628529265\O,0,-1.3620513424,0.2681745486,-3.080380199
 1\C,0,1.1221648683,-0.6616740036,-2.3589187794\O,0,1.1385833965,-1.704
 6551515,-2.9741352349\C,0,1.5575033504,0.6488221729,-2.9321377082\H,0,
 2.6340023733,0.6078575694,-3.1087865988\H,0,1.0618430278,0.7788793256,
 -3.8915129137\H,0,1.3314724902,1.4820777506,-2.2718610977\C,0,-6.18022
 52913,0.2562456461,0.4750704925\C,0,-6.2290439517,-1.1754629152,0.6839
 738396\H,0,-7.0387621459,-1.5299549366,1.3059087023\C,0,-5.3226525884,
 -2.0154127535,0.1411990286\C,0,-5.3804515561,-3.4904406366,0.383793420
 7\H,0,-5.4711299914,-4.0315812699,-0.5598044533\H,0,-4.4627847238,-3.8
 300943942,0.8692853337\H,0,-6.2267948713,-3.7454868872,1.0170975039\O,
 0,-6.9549393075,1.0659006503,0.9248982485\O,0,-5.1545066857,0.73782808
 82,-0.2990578276\O,0,-2.8927759395,4.1846012222,-1.6770338989\H,0,-2.2
 426029293,3.3553016167,-2.9719943866\H,0,-3.8079840572,4.0970684684,-1
 .3942177062\O,0,-1.7935753751,2.7878842654,-3.6484847881\H,0,-1.031881
 0082,3.2833886214,-3.9662417489\H,0,-1.5240131596,1.2359932534,-3.2666
 31517\\Version=ES64L-G16RevA.03\State=1-A\HF=-2476.2341708\RMSD=1.723e
 -09\Dipole=8.6833131,-5.6070861,-0.1146692\Quadrupole=-13.1559708,21.5
 229358,-8.366965,45.681169,-27.29604,-6.9592925\PG=C01 [X(C28H43N6O11Z
 n1)]\\@


 ... A MOLECULAR SYSTEM ... (PASSES) ... FROM ONE STATE OF EQUILIBRIUM 
 TO ANOTHER ... BY MEANS OF ALL POSSIBLE INTERMEDIATE PATHS, 
 BUT THE PATH MOST ECONOMICAL OF ENERGY WILL BE THE MORE OFTEN TRAVELED.

                      -- HENRY EYRING, 1945
 Job cpu time:       0 days 17 hours 49 minutes 16.7 seconds.
 Elapsed time:       0 days  0 hours 13 minutes 34.3 seconds.
 File lengths (MBytes):  RWF=   2148 Int=      0 D2E=      0 Chk=    256 Scr=      1
 Normal termination of Gaussian 16 at Mon Aug 12 10:43:53 2024.
