 Entering Gaussian System, Link 0=g16
 Initial command:
 /share/home/dongh_N/wxy/software/g16/l1.exe "/tmp/Gau-59271.inp" -scrdir="/tmp/"
 Entering Link 1 = /share/home/dongh_N/wxy/software/g16/l1.exe PID=     59272.
  
 Copyright (c) 1988,1990,1992,1993,1995,1998,2003,2009,2016,
            Gaussian, Inc.  All Rights Reserved.
  
 This is part of the Gaussian(R) 16 program.  It is based on
 the Gaussian(R) 09 system (copyright 2009, Gaussian, Inc.),
 the Gaussian(R) 03 system (copyright 2003, Gaussian, Inc.),
 the Gaussian(R) 98 system (copyright 1998, Gaussian, Inc.),
 the Gaussian(R) 94 system (copyright 1995, Gaussian, Inc.),
 the Gaussian 92(TM) system (copyright 1992, Gaussian, Inc.),
 the Gaussian 90(TM) system (copyright 1990, Gaussian, Inc.),
 the Gaussian 88(TM) system (copyright 1988, Gaussian, Inc.),
 the Gaussian 86(TM) system (copyright 1986, Carnegie Mellon
 University), and the Gaussian 82(TM) system (copyright 1983,
 Carnegie Mellon University). Gaussian is a federally registered
 trademark of Gaussian, Inc.
  
 This software contains proprietary and confidential information,
 including trade secrets, belonging to Gaussian, Inc.
  
 This software is provided under written license and may be
 used, copied, transmitted, or stored only in accord with that
 written license.
  
 The following legend is applicable only to US Government
 contracts under FAR:
  
                    RESTRICTED RIGHTS LEGEND
  
 Use, reproduction and disclosure by the US Government is
 subject to restrictions as set forth in subparagraphs (a)
 and (c) of the Commercial Computer Software - Restricted
 Rights clause in FAR 52.227-19.
  
 Gaussian, Inc.
 340 Quinnipiac St., Bldg. 40, Wallingford CT 06492
  
  
 ---------------------------------------------------------------
 Warning -- This program may not be used in any manner that
 competes with the business of Gaussian, Inc. or will provide
 assistance to any competitor of Gaussian, Inc.  The licensee
 of this program is prohibited from giving any competitor of
 Gaussian, Inc. access to this program.  By using this program,
 the user acknowledges that Gaussian, Inc. is engaged in the
 business of creating and licensing software in the field of
 computational chemistry and represents and warrants to the
 licensee that it is not a competitor of Gaussian, Inc. and that
 it will not use this program in any manner prohibited above.
 ---------------------------------------------------------------
  

 Cite this work as:
 Gaussian 16, Revision A.03,
 M. J. Frisch, G. W. Trucks, H. B. Schlegel, G. E. Scuseria, 
 M. A. Robb, J. R. Cheeseman, G. Scalmani, V. Barone, 
 G. A. Petersson, H. Nakatsuji, X. Li, M. Caricato, A. V. Marenich, 
 J. Bloino, B. G. Janesko, R. Gomperts, B. Mennucci, H. P. Hratchian, 
 J. V. Ortiz, A. F. Izmaylov, J. L. Sonnenberg, D. Williams-Young, 
 F. Ding, F. Lipparini, F. Egidi, J. Goings, B. Peng, A. Petrone, 
 T. Henderson, D. Ranasinghe, V. G. Zakrzewski, J. Gao, N. Rega, 
 G. Zheng, W. Liang, M. Hada, M. Ehara, K. Toyota, R. Fukuda, 
 J. Hasegawa, M. Ishida, T. Nakajima, Y. Honda, O. Kitao, H. Nakai, 
 T. Vreven, K. Throssell, J. A. Montgomery, Jr., J. E. Peralta, 
 F. Ogliaro, M. J. Bearpark, J. J. Heyd, E. N. Brothers, K. N. Kudin, 
 V. N. Staroverov, T. A. Keith, R. Kobayashi, J. Normand, 
 K. Raghavachari, A. P. Rendell, J. C. Burant, S. S. Iyengar, 
 J. Tomasi, M. Cossi, J. M. Millam, M. Klene, C. Adamo, R. Cammi, 
 J. W. Ochterski, R. L. Martin, K. Morokuma, O. Farkas, 
 J. B. Foresman, and D. J. Fox, Gaussian, Inc., Wallingford CT, 2016.
 
 ******************************************
 Gaussian 16:  ES64L-G16RevA.03 25-Dec-2016
                25-Aug-2024 
 ******************************************
 %chk=17_2_opt_sp.chk
 %mem=64GB
 %nprocshared=80
 Will use up to   80 processors via shared memory.
 ---------------------------------------------------
 # opt=(modredundant,calcall) freq genecp scrf m062x
 ---------------------------------------------------
 1/10=4,18=120,19=15,26=3,38=1/1,3;
 2/9=110,12=2,17=6,18=5,40=1/2;
 3/5=7,11=2,16=1,17=8,25=1,30=1,70=2201,71=2,74=-55,140=1/1,2,3;
 4//1;
 5/5=2,38=5/2;
 8/6=4,10=90,11=11/1;
 11/6=1,8=1,9=11,15=111,16=1/1,2,10;
 10/6=1/2;
 6/7=2,8=2,9=2,10=2,18=1,28=1/1;
 7/10=1,25=1/1,2,3,16;
 1/10=4,18=20,19=15,26=3/3(3);
 2/9=110/2;
 7/8=1,9=1,25=1,44=-1/16;
 99//99;
 2/9=110/2;
 3/5=7,6=1,11=2,16=1,17=8,25=1,30=1,70=2205,71=2,74=-55,82=7,140=1/1,2,3;
 4/5=5,16=3,69=1/1;
 5/5=2,38=5/2;
 8/6=4,10=90,11=11/1;
 11/6=1,8=1,9=11,15=111,16=1/1,2,10;
 10/6=1/2;
 7/10=1,25=1/1,2,3,16;
 1/10=4,18=20,19=15,26=3/3(-8);
 2/9=110/2;
 6/7=2,8=2,9=2,10=2,18=1,19=2,28=1/1;
 7/8=1,9=1,25=1,44=-1/16;
 99//99;
 -------------------
 Title Card Required
 -------------------
 Symbolic Z-matrix:
 Charge =  1 Multiplicity = 1
 C                    -1.94159   4.22527   2.35853 
 H                    -1.63967   4.46132   3.37913 
 C                    -1.62097   2.76809   2.02163 
 H                    -2.11596   2.109     2.73779 
 H                    -0.54805   2.58888   2.12198 
 N                    -1.10768   1.80571  -0.24414 
 C                    -2.01439   2.37836   0.6298 
 C                    -1.7776    1.57103  -1.3625 
 H                    -1.37958   1.10503  -2.24747 
 N                    -3.05454   1.93441  -1.26551 
 H                    -3.70256   1.46023  -1.88461 
 C                    -3.22585   2.45494  -0.00288 
 H                    -4.17729   2.81422   0.34363 
 C                    -4.30619  -1.75194   0.55402 
 H                    -4.71728  -1.79135   1.56401 
 C                    -2.99041  -0.97206   0.51976 
 H                    -3.16582   0.05638   0.84528 
 H                    -2.6292   -0.91308  -0.51169 
 N                    -0.60407  -1.10583   1.37616 
 C                    -1.91708  -1.56307   1.37527 
 C                     0.06062  -1.84546   2.24777 
 H                     1.11174  -1.76231   2.46752 
 N                    -0.75114  -2.74974   2.80396 
 H                    -0.48026  -3.43335   3.49552 
 C                    -2.00719  -2.59276   2.26598 
 H                    -2.83813  -3.207     2.56384 
 C                     4.60197  -1.02228  -0.57767 
 H                     5.54457  -0.49161  -0.46562 
 C                     3.65174  -0.2461   -1.50971 
 H                     2.74137  -0.81959  -1.68124 
 H                     4.14122  -0.13991  -2.47727 
 N                     2.11084   1.38228  -0.31607 
 C                     3.28878   1.1078   -0.99014 
 C                     2.13595   2.66754  -0.00913 
 H                     1.35568   3.20993   0.49841 
 N                     3.27042   3.22645  -0.44508 
 H                     3.52125   4.19911  -0.34304 
 C                     4.01446   2.25962  -1.07096 
 H                     4.96975   2.46787  -1.51908 
 C                     3.99924  -1.18295   0.79773 
 O                     4.46306  -0.68918   1.79464 
 O                     2.86841  -1.89301   0.88684 
 Zn                    0.34495   0.31661   0.14188 
 O                    -1.18837  -3.42417  -1.10463 
 H                    -1.6691   -2.74733  -1.64245 
 H                    -1.58301  -3.39963  -0.22535 
 H                     1.9141   -3.57724  -1.84982 
 O                     1.49605  -2.95793  -1.24085 
 H                     2.53134  -2.27184   0.04306 
 H                     0.57167  -3.27493  -1.09536 
 H                    -1.42029   4.90054   1.67864 
 H                    -3.01185   4.41638   2.26913 
 H                    -5.03751  -1.2661   -0.09088 
 H                    -4.17114  -2.77631   0.20027 
 H                     4.79846  -2.00926  -1.00239 
 O                    -4.03532   0.22166  -2.79911 
 H                    -3.23248  -0.52916  -2.74509 
 H                    -4.88764  -0.20118  -2.65977 
 O                    -2.19842  -1.35182  -2.70049 
 H                    -2.0689   -1.66645  -3.60369 
 O                     0.12163  -0.60855  -1.74306 
 H                     0.68031  -1.4018   -1.81847 
 H                    -0.78894  -0.87044  -2.13323 
 
 Add virtual bond connecting atoms O59        and H57        Dist= 2.50D+00.
 Add virtual bond connecting atoms O56        and H11        Dist= 2.98D+00.
 Add virtual bond connecting atoms O59        and H63        Dist= 3.01D+00.
 Add virtual bond connecting atoms H50        and O44        Dist= 3.34D+00.
 Add virtual bond connecting atoms H49        and O48        Dist= 3.38D+00.
 Add virtual bond connecting atoms O59        and H45        Dist= 3.46D+00.
 Add virtual bond connecting atoms H62        and O48        Dist= 3.50D+00.
 The following ModRedundant input section has been read:
 X      27 F                                                                   
 X       1 F                                                                   
 X      14 F                                                                   
 

 GradGradGradGradGradGradGradGradGradGradGradGradGradGradGradGradGradGrad
 Berny optimization.
 Initialization pass.
                           ----------------------------
                           !    Initial Parameters    !
                           ! (Angstroms and Degrees)  !
 --------------------------                            --------------------------
 ! Name  Definition              Value          Derivative Info.                !
 --------------------------------------------------------------------------------
 ! X1    R(1,-1)                -1.9416         frozen, calculate D2E/DX2 analyt!
 ! Y1    R(1,-2)                 4.2253         frozen, calculate D2E/DX2 analyt!
 ! Z1    R(1,-3)                 2.3585         frozen, calculate D2E/DX2 analyt!
 ! X14   R(14,-1)               -4.3062         frozen, calculate D2E/DX2 analyt!
 ! Y14   R(14,-2)               -1.7519         frozen, calculate D2E/DX2 analyt!
 ! Z14   R(14,-3)                0.554          frozen, calculate D2E/DX2 analyt!
 ! X27   R(27,-1)                4.602          frozen, calculate D2E/DX2 analyt!
 ! Y27   R(27,-2)               -1.0223         frozen, calculate D2E/DX2 analyt!
 ! Z27   R(27,-3)               -0.5777         frozen, calculate D2E/DX2 analyt!
 ! R1    R(1,2)                  1.0902         calculate D2E/DX2 analytically  !
 ! R2    R(1,3)                  1.5296         calculate D2E/DX2 analytically  !
 ! R3    R(1,51)                 1.0909         calculate D2E/DX2 analytically  !
 ! R4    R(1,52)                 1.0909         calculate D2E/DX2 analytically  !
 ! R5    R(3,4)                  1.0919         calculate D2E/DX2 analytically  !
 ! R6    R(3,5)                  1.0924         calculate D2E/DX2 analytically  !
 ! R7    R(3,7)                  1.4979         calculate D2E/DX2 analytically  !
 ! R8    R(6,7)                  1.3834         calculate D2E/DX2 analytically  !
 ! R9    R(6,8)                  1.3246         calculate D2E/DX2 analytically  !
 ! R10   R(6,43)                 2.1158         calculate D2E/DX2 analytically  !
 ! R11   R(7,12)                 1.3689         calculate D2E/DX2 analytically  !
 ! R12   R(8,9)                  1.0765         calculate D2E/DX2 analytically  !
 ! R13   R(8,10)                 1.3312         calculate D2E/DX2 analytically  !
 ! R14   R(10,11)                1.0139         calculate D2E/DX2 analytically  !
 ! R15   R(10,12)                1.3764         calculate D2E/DX2 analytically  !
 ! R16   R(11,56)                1.5751         calculate D2E/DX2 analytically  !
 ! R17   R(12,13)                1.0744         calculate D2E/DX2 analytically  !
 ! R18   R(14,15)                1.0912         calculate D2E/DX2 analytically  !
 ! R19   R(14,16)                1.5299         calculate D2E/DX2 analytically  !
 ! R20   R(14,53)                1.0894         calculate D2E/DX2 analytically  !
 ! R21   R(14,54)                1.0921         calculate D2E/DX2 analytically  !
 ! R22   R(16,17)                1.0929         calculate D2E/DX2 analytically  !
 ! R23   R(16,18)                1.0945         calculate D2E/DX2 analytically  !
 ! R24   R(16,20)                1.4944         calculate D2E/DX2 analytically  !
 ! R25   R(19,20)                1.3903         calculate D2E/DX2 analytically  !
 ! R26   R(19,21)                1.3223         calculate D2E/DX2 analytically  !
 ! R27   R(19,43)                2.1089         calculate D2E/DX2 analytically  !
 ! R28   R(20,25)                1.3645         calculate D2E/DX2 analytically  !
 ! R29   R(21,22)                1.0771         calculate D2E/DX2 analytically  !
 ! R30   R(21,23)                1.3364         calculate D2E/DX2 analytically  !
 ! R31   R(23,24)                1.0094         calculate D2E/DX2 analytically  !
 ! R32   R(23,25)                1.3754         calculate D2E/DX2 analytically  !
 ! R33   R(25,26)                1.0754         calculate D2E/DX2 analytically  !
 ! R34   R(27,28)                1.0875         calculate D2E/DX2 analytically  !
 ! R35   R(27,29)                1.5408         calculate D2E/DX2 analytically  !
 ! R36   R(27,40)                1.5102         calculate D2E/DX2 analytically  !
 ! R37   R(27,55)                1.0923         calculate D2E/DX2 analytically  !
 ! R38   R(29,30)                1.0895         calculate D2E/DX2 analytically  !
 ! R39   R(29,31)                1.0895         calculate D2E/DX2 analytically  !
 ! R40   R(29,33)                1.4949         calculate D2E/DX2 analytically  !
 ! R41   R(32,33)                1.3846         calculate D2E/DX2 analytically  !
 ! R42   R(32,34)                1.3216         calculate D2E/DX2 analytically  !
 ! R43   R(32,43)                2.1128         calculate D2E/DX2 analytically  !
 ! R44   R(33,38)                1.3638         calculate D2E/DX2 analytically  !
 ! R45   R(34,35)                1.0773         calculate D2E/DX2 analytically  !
 ! R46   R(34,36)                1.3377         calculate D2E/DX2 analytically  !
 ! R47   R(36,37)                1.0096         calculate D2E/DX2 analytically  !
 ! R48   R(36,38)                1.3712         calculate D2E/DX2 analytically  !
 ! R49   R(38,39)                1.0755         calculate D2E/DX2 analytically  !
 ! R50   R(40,41)                1.2053         calculate D2E/DX2 analytically  !
 ! R51   R(40,42)                1.3382         calculate D2E/DX2 analytically  !
 ! R52   R(42,49)                0.9844         calculate D2E/DX2 analytically  !
 ! R53   R(43,61)                2.1116         calculate D2E/DX2 analytically  !
 ! R54   R(44,45)                0.9892         calculate D2E/DX2 analytically  !
 ! R55   R(44,46)                0.9641         calculate D2E/DX2 analytically  !
 ! R56   R(44,50)                1.7664         calculate D2E/DX2 analytically  !
 ! R57   R(45,59)                1.8295         calculate D2E/DX2 analytically  !
 ! R58   R(47,48)                0.9639         calculate D2E/DX2 analytically  !
 ! R59   R(48,49)                1.7863         calculate D2E/DX2 analytically  !
 ! R60   R(48,50)                0.988          calculate D2E/DX2 analytically  !
 ! R61   R(48,62)                1.8495         calculate D2E/DX2 analytically  !
 ! R62   R(56,57)                1.1005         calculate D2E/DX2 analytically  !
 ! R63   R(56,58)                0.9616         calculate D2E/DX2 analytically  !
 ! R64   R(57,59)                1.3221         calculate D2E/DX2 analytically  !
 ! R65   R(59,60)                0.9652         calculate D2E/DX2 analytically  !
 ! R66   R(59,63)                1.5938         calculate D2E/DX2 analytically  !
 ! R67   R(61,62)                0.9732         calculate D2E/DX2 analytically  !
 ! R68   R(61,63)                1.0247         calculate D2E/DX2 analytically  !
 ! A1    A(2,1,3)              110.7578         calculate D2E/DX2 analytically  !
 ! A2    A(2,1,51)             108.4873         calculate D2E/DX2 analytically  !
 ! A3    A(2,1,52)             108.09           calculate D2E/DX2 analytically  !
 ! A4    A(3,1,51)             110.6261         calculate D2E/DX2 analytically  !
 ! A5    A(3,1,52)             110.763          calculate D2E/DX2 analytically  !
 ! A6    A(51,1,52)            108.0184         calculate D2E/DX2 analytically  !
 ! A7    A(1,3,4)              109.606          calculate D2E/DX2 analytically  !
 ! A8    A(1,3,5)              109.9945         calculate D2E/DX2 analytically  !
 ! A9    A(1,3,7)              113.4193         calculate D2E/DX2 analytically  !
 ! A10   A(4,3,5)              106.6155         calculate D2E/DX2 analytically  !
 ! A11   A(4,3,7)              109.4692         calculate D2E/DX2 analytically  !
 ! A12   A(5,3,7)              107.4956         calculate D2E/DX2 analytically  !
 ! A13   A(7,6,8)              105.9752         calculate D2E/DX2 analytically  !
 ! A14   A(7,6,43)             128.7605         calculate D2E/DX2 analytically  !
 ! A15   A(8,6,43)             112.1222         calculate D2E/DX2 analytically  !
 ! A16   A(3,7,6)              121.5021         calculate D2E/DX2 analytically  !
 ! A17   A(3,7,12)             130.3413         calculate D2E/DX2 analytically  !
 ! A18   A(6,7,12)             108.1331         calculate D2E/DX2 analytically  !
 ! A19   A(6,8,9)              125.7187         calculate D2E/DX2 analytically  !
 ! A20   A(6,8,10)             112.0409         calculate D2E/DX2 analytically  !
 ! A21   A(9,8,10)             122.1917         calculate D2E/DX2 analytically  !
 ! A22   A(8,10,11)            116.1633         calculate D2E/DX2 analytically  !
 ! A23   A(8,10,12)            106.8256         calculate D2E/DX2 analytically  !
 ! A24   A(11,10,12)           131.1035         calculate D2E/DX2 analytically  !
 ! A25   A(10,11,56)           149.0091         calculate D2E/DX2 analytically  !
 ! A26   A(7,12,10)            107.0186         calculate D2E/DX2 analytically  !
 ! A27   A(7,12,13)            130.7946         calculate D2E/DX2 analytically  !
 ! A28   A(10,12,13)           122.176          calculate D2E/DX2 analytically  !
 ! A29   A(15,14,16)           111.294          calculate D2E/DX2 analytically  !
 ! A30   A(15,14,53)           108.1276         calculate D2E/DX2 analytically  !
 ! A31   A(15,14,54)           108.212          calculate D2E/DX2 analytically  !
 ! A32   A(16,14,53)           109.6792         calculate D2E/DX2 analytically  !
 ! A33   A(16,14,54)           111.3788         calculate D2E/DX2 analytically  !
 ! A34   A(53,14,54)           108.0334         calculate D2E/DX2 analytically  !
 ! A35   A(14,16,17)           109.572          calculate D2E/DX2 analytically  !
 ! A36   A(14,16,18)           109.4154         calculate D2E/DX2 analytically  !
 ! A37   A(14,16,20)           113.7832         calculate D2E/DX2 analytically  !
 ! A38   A(17,16,18)           106.4379         calculate D2E/DX2 analytically  !
 ! A39   A(17,16,20)           108.4762         calculate D2E/DX2 analytically  !
 ! A40   A(18,16,20)           108.8924         calculate D2E/DX2 analytically  !
 ! A41   A(20,19,21)           106.9283         calculate D2E/DX2 analytically  !
 ! A42   A(20,19,43)           130.2727         calculate D2E/DX2 analytically  !
 ! A43   A(21,19,43)           122.4692         calculate D2E/DX2 analytically  !
 ! A44   A(16,20,19)           123.2699         calculate D2E/DX2 analytically  !
 ! A45   A(16,20,25)           128.6624         calculate D2E/DX2 analytically  !
 ! A46   A(19,20,25)           108.0673         calculate D2E/DX2 analytically  !
 ! A47   A(19,21,22)           125.5817         calculate D2E/DX2 analytically  !
 ! A48   A(19,21,23)           110.3327         calculate D2E/DX2 analytically  !
 ! A49   A(22,21,23)           124.0629         calculate D2E/DX2 analytically  !
 ! A50   A(21,23,24)           125.4761         calculate D2E/DX2 analytically  !
 ! A51   A(21,23,25)           108.3418         calculate D2E/DX2 analytically  !
 ! A52   A(24,23,25)           126.1806         calculate D2E/DX2 analytically  !
 ! A53   A(20,25,23)           106.3294         calculate D2E/DX2 analytically  !
 ! A54   A(20,25,26)           131.5201         calculate D2E/DX2 analytically  !
 ! A55   A(23,25,26)           122.1474         calculate D2E/DX2 analytically  !
 ! A56   A(28,27,29)           110.5515         calculate D2E/DX2 analytically  !
 ! A57   A(28,27,40)           107.6977         calculate D2E/DX2 analytically  !
 ! A58   A(28,27,55)           108.9695         calculate D2E/DX2 analytically  !
 ! A59   A(29,27,40)           110.9995         calculate D2E/DX2 analytically  !
 ! A60   A(29,27,55)           109.3242         calculate D2E/DX2 analytically  !
 ! A61   A(40,27,55)           109.2553         calculate D2E/DX2 analytically  !
 ! A62   A(27,29,30)           110.205          calculate D2E/DX2 analytically  !
 ! A63   A(27,29,31)           108.0127         calculate D2E/DX2 analytically  !
 ! A64   A(27,29,33)           113.3116         calculate D2E/DX2 analytically  !
 ! A65   A(30,29,31)           106.6711         calculate D2E/DX2 analytically  !
 ! A66   A(30,29,33)           109.181          calculate D2E/DX2 analytically  !
 ! A67   A(31,29,33)           109.2362         calculate D2E/DX2 analytically  !
 ! A68   A(33,32,34)           106.8387         calculate D2E/DX2 analytically  !
 ! A69   A(33,32,43)           135.7726         calculate D2E/DX2 analytically  !
 ! A70   A(34,32,43)           117.1324         calculate D2E/DX2 analytically  !
 ! A71   A(29,33,32)           123.7305         calculate D2E/DX2 analytically  !
 ! A72   A(29,33,38)           127.9615         calculate D2E/DX2 analytically  !
 ! A73   A(32,33,38)           108.3068         calculate D2E/DX2 analytically  !
 ! A74   A(32,34,35)           125.8213         calculate D2E/DX2 analytically  !
 ! A75   A(32,34,36)           110.2874         calculate D2E/DX2 analytically  !
 ! A76   A(35,34,36)           123.8777         calculate D2E/DX2 analytically  !
 ! A77   A(34,36,37)           125.4684         calculate D2E/DX2 analytically  !
 ! A78   A(34,36,38)           108.3211         calculate D2E/DX2 analytically  !
 ! A79   A(37,36,38)           126.2005         calculate D2E/DX2 analytically  !
 ! A80   A(33,38,36)           106.2449         calculate D2E/DX2 analytically  !
 ! A81   A(33,38,39)           131.3656         calculate D2E/DX2 analytically  !
 ! A82   A(36,38,39)           122.386          calculate D2E/DX2 analytically  !
 ! A83   A(27,40,41)           123.7861         calculate D2E/DX2 analytically  !
 ! A84   A(27,40,42)           117.0218         calculate D2E/DX2 analytically  !
 ! A85   A(41,40,42)           119.1738         calculate D2E/DX2 analytically  !
 ! A86   A(40,42,49)           115.8771         calculate D2E/DX2 analytically  !
 ! A87   A(6,43,19)            105.8149         calculate D2E/DX2 analytically  !
 ! A88   A(6,43,32)            100.3294         calculate D2E/DX2 analytically  !
 ! A89   A(6,43,61)             94.1796         calculate D2E/DX2 analytically  !
 ! A90   A(19,43,32)           147.4801         calculate D2E/DX2 analytically  !
 ! A91   A(19,43,61)           100.3314         calculate D2E/DX2 analytically  !
 ! A92   A(32,43,61)            96.6557         calculate D2E/DX2 analytically  !
 ! A93   A(45,44,46)           106.2316         calculate D2E/DX2 analytically  !
 ! A94   A(45,44,50)           115.4223         calculate D2E/DX2 analytically  !
 ! A95   A(46,44,50)           113.6365         calculate D2E/DX2 analytically  !
 ! A96   A(47,48,49)           116.7106         calculate D2E/DX2 analytically  !
 ! A97   A(47,48,50)           107.017          calculate D2E/DX2 analytically  !
 ! A98   A(47,48,62)           122.3141         calculate D2E/DX2 analytically  !
 ! A99   A(49,48,50)           124.0304         calculate D2E/DX2 analytically  !
 ! A100  A(49,48,62)            99.0294         calculate D2E/DX2 analytically  !
 ! A101  A(50,48,62)            84.4503         calculate D2E/DX2 analytically  !
 ! A102  A(42,49,48)           164.2177         calculate D2E/DX2 analytically  !
 ! A103  A(44,50,48)           163.4531         calculate D2E/DX2 analytically  !
 ! A104  A(11,56,57)           110.7223         calculate D2E/DX2 analytically  !
 ! A105  A(11,56,58)           116.6725         calculate D2E/DX2 analytically  !
 ! A106  A(57,56,58)           109.8452         calculate D2E/DX2 analytically  !
 ! A107  A(45,59,57)           136.0889         calculate D2E/DX2 analytically  !
 ! A108  A(45,59,60)           104.6975         calculate D2E/DX2 analytically  !
 ! A109  A(45,59,63)            76.6253         calculate D2E/DX2 analytically  !
 ! A110  A(57,59,60)           106.0348         calculate D2E/DX2 analytically  !
 ! A111  A(57,59,63)           121.0471         calculate D2E/DX2 analytically  !
 ! A112  A(60,59,63)           108.231          calculate D2E/DX2 analytically  !
 ! A113  A(43,61,62)           111.4441         calculate D2E/DX2 analytically  !
 ! A114  A(43,61,63)           123.0844         calculate D2E/DX2 analytically  !
 ! A115  A(62,61,63)           105.8017         calculate D2E/DX2 analytically  !
 ! A116  A(48,62,61)           156.1821         calculate D2E/DX2 analytically  !
 ! A117  L(44,45,59,2,-1)      177.3023         calculate D2E/DX2 analytically  !
 ! A118  L(56,57,59,1,-1)      177.6939         calculate D2E/DX2 analytically  !
 ! A119  L(59,63,61,1,-1)      181.1323         calculate D2E/DX2 analytically  !
 ! A120  L(44,45,59,2,-2)      167.508          calculate D2E/DX2 analytically  !
 ! A121  L(56,57,59,1,-2)      184.2031         calculate D2E/DX2 analytically  !
 ! A122  L(59,63,61,1,-2)      177.0571         calculate D2E/DX2 analytically  !
 ! D1    D(2,1,3,4)             57.2373         calculate D2E/DX2 analytically  !
 ! D2    D(2,1,3,5)            -59.6749         calculate D2E/DX2 analytically  !
 ! D3    D(2,1,3,7)            179.9115         calculate D2E/DX2 analytically  !
 ! D4    D(51,1,3,4)           177.5683         calculate D2E/DX2 analytically  !
 ! D5    D(51,1,3,5)            60.6561         calculate D2E/DX2 analytically  !
 ! D6    D(51,1,3,7)           -59.7575         calculate D2E/DX2 analytically  !
 ! D7    D(52,1,3,4)           -62.6851         calculate D2E/DX2 analytically  !
 ! D8    D(52,1,3,5)          -179.5973         calculate D2E/DX2 analytically  !
 ! D9    D(52,1,3,7)            59.9891         calculate D2E/DX2 analytically  !
 ! D10   D(1,3,7,6)            126.3006         calculate D2E/DX2 analytically  !
 ! D11   D(1,3,7,12)           -55.685          calculate D2E/DX2 analytically  !
 ! D12   D(4,3,7,6)           -110.9496         calculate D2E/DX2 analytically  !
 ! D13   D(4,3,7,12)            67.0648         calculate D2E/DX2 analytically  !
 ! D14   D(5,3,7,6)              4.482          calculate D2E/DX2 analytically  !
 ! D15   D(5,3,7,12)          -177.5036         calculate D2E/DX2 analytically  !
 ! D16   D(8,6,7,3)            179.0972         calculate D2E/DX2 analytically  !
 ! D17   D(8,6,7,12)             0.6896         calculate D2E/DX2 analytically  !
 ! D18   D(43,6,7,3)            42.027          calculate D2E/DX2 analytically  !
 ! D19   D(43,6,7,12)         -136.3806         calculate D2E/DX2 analytically  !
 ! D20   D(7,6,8,9)           -178.3515         calculate D2E/DX2 analytically  !
 ! D21   D(7,6,8,10)            -0.8575         calculate D2E/DX2 analytically  !
 ! D22   D(43,6,8,9)           -33.3328         calculate D2E/DX2 analytically  !
 ! D23   D(43,6,8,10)          144.1612         calculate D2E/DX2 analytically  !
 ! D24   D(7,6,43,19)           42.1652         calculate D2E/DX2 analytically  !
 ! D25   D(7,6,43,32)         -118.3004         calculate D2E/DX2 analytically  !
 ! D26   D(7,6,43,61)          144.1465         calculate D2E/DX2 analytically  !
 ! D27   D(8,6,43,19)          -92.8569         calculate D2E/DX2 analytically  !
 ! D28   D(8,6,43,32)          106.6775         calculate D2E/DX2 analytically  !
 ! D29   D(8,6,43,61)            9.1244         calculate D2E/DX2 analytically  !
 ! D30   D(3,7,12,10)         -178.5115         calculate D2E/DX2 analytically  !
 ! D31   D(3,7,12,13)            0.2852         calculate D2E/DX2 analytically  !
 ! D32   D(6,7,12,10)           -0.2929         calculate D2E/DX2 analytically  !
 ! D33   D(6,7,12,13)          178.5038         calculate D2E/DX2 analytically  !
 ! D34   D(6,8,10,11)         -155.35           calculate D2E/DX2 analytically  !
 ! D35   D(6,8,10,12)            0.6844         calculate D2E/DX2 analytically  !
 ! D36   D(9,8,10,11)           22.2459         calculate D2E/DX2 analytically  !
 ! D37   D(9,8,10,12)          178.2803         calculate D2E/DX2 analytically  !
 ! D38   D(8,10,11,56)          20.7098         calculate D2E/DX2 analytically  !
 ! D39   D(12,10,11,56)       -128.2275         calculate D2E/DX2 analytically  !
 ! D40   D(8,10,12,7)           -0.2162         calculate D2E/DX2 analytically  !
 ! D41   D(8,10,12,13)        -179.1399         calculate D2E/DX2 analytically  !
 ! D42   D(11,10,12,7)         150.8485         calculate D2E/DX2 analytically  !
 ! D43   D(11,10,12,13)        -28.0752         calculate D2E/DX2 analytically  !
 ! D44   D(10,11,56,57)          3.9051         calculate D2E/DX2 analytically  !
 ! D45   D(10,11,56,58)        130.5054         calculate D2E/DX2 analytically  !
 ! D46   D(15,14,16,17)        -61.1324         calculate D2E/DX2 analytically  !
 ! D47   D(15,14,16,18)       -177.4756         calculate D2E/DX2 analytically  !
 ! D48   D(15,14,16,20)         60.4849         calculate D2E/DX2 analytically  !
 ! D49   D(53,14,16,17)         58.4742         calculate D2E/DX2 analytically  !
 ! D50   D(53,14,16,18)        -57.869          calculate D2E/DX2 analytically  !
 ! D51   D(53,14,16,20)       -179.9085         calculate D2E/DX2 analytically  !
 ! D52   D(54,14,16,17)        178.017          calculate D2E/DX2 analytically  !
 ! D53   D(54,14,16,18)         61.6738         calculate D2E/DX2 analytically  !
 ! D54   D(54,14,16,20)        -60.3657         calculate D2E/DX2 analytically  !
 ! D55   D(14,16,20,19)        172.5224         calculate D2E/DX2 analytically  !
 ! D56   D(14,16,20,25)         -7.7239         calculate D2E/DX2 analytically  !
 ! D57   D(17,16,20,19)        -65.2538         calculate D2E/DX2 analytically  !
 ! D58   D(17,16,20,25)        114.4999         calculate D2E/DX2 analytically  !
 ! D59   D(18,16,20,19)         50.1943         calculate D2E/DX2 analytically  !
 ! D60   D(18,16,20,25)       -130.052          calculate D2E/DX2 analytically  !
 ! D61   D(21,19,20,16)        179.6442         calculate D2E/DX2 analytically  !
 ! D62   D(21,19,20,25)         -0.1535         calculate D2E/DX2 analytically  !
 ! D63   D(43,19,20,16)         -6.9623         calculate D2E/DX2 analytically  !
 ! D64   D(43,19,20,25)        173.24           calculate D2E/DX2 analytically  !
 ! D65   D(20,19,21,22)        178.3521         calculate D2E/DX2 analytically  !
 ! D66   D(20,19,21,23)          0.0294         calculate D2E/DX2 analytically  !
 ! D67   D(43,19,21,22)          4.3243         calculate D2E/DX2 analytically  !
 ! D68   D(43,19,21,23)       -173.9984         calculate D2E/DX2 analytically  !
 ! D69   D(20,19,43,6)          36.0916         calculate D2E/DX2 analytically  !
 ! D70   D(20,19,43,32)        178.3645         calculate D2E/DX2 analytically  !
 ! D71   D(20,19,43,61)        -61.2991         calculate D2E/DX2 analytically  !
 ! D72   D(21,19,43,6)        -151.4046         calculate D2E/DX2 analytically  !
 ! D73   D(21,19,43,32)         -9.1316         calculate D2E/DX2 analytically  !
 ! D74   D(21,19,43,61)        111.2048         calculate D2E/DX2 analytically  !
 ! D75   D(16,20,25,23)       -179.5701         calculate D2E/DX2 analytically  !
 ! D76   D(16,20,25,26)         -0.2251         calculate D2E/DX2 analytically  !
 ! D77   D(19,20,25,23)          0.2133         calculate D2E/DX2 analytically  !
 ! D78   D(19,20,25,26)        179.5583         calculate D2E/DX2 analytically  !
 ! D79   D(19,21,23,24)        179.6815         calculate D2E/DX2 analytically  !
 ! D80   D(19,21,23,25)          0.1049         calculate D2E/DX2 analytically  !
 ! D81   D(22,21,23,24)          1.3281         calculate D2E/DX2 analytically  !
 ! D82   D(22,21,23,25)       -178.2485         calculate D2E/DX2 analytically  !
 ! D83   D(21,23,25,20)         -0.1967         calculate D2E/DX2 analytically  !
 ! D84   D(21,23,25,26)       -179.6174         calculate D2E/DX2 analytically  !
 ! D85   D(24,23,25,20)       -179.7694         calculate D2E/DX2 analytically  !
 ! D86   D(24,23,25,26)          0.8098         calculate D2E/DX2 analytically  !
 ! D87   D(28,27,29,30)        175.5203         calculate D2E/DX2 analytically  !
 ! D88   D(28,27,29,31)         59.3455         calculate D2E/DX2 analytically  !
 ! D89   D(28,27,29,33)        -61.8095         calculate D2E/DX2 analytically  !
 ! D90   D(40,27,29,30)        -65.0296         calculate D2E/DX2 analytically  !
 ! D91   D(40,27,29,31)        178.7955         calculate D2E/DX2 analytically  !
 ! D92   D(40,27,29,33)         57.6406         calculate D2E/DX2 analytically  !
 ! D93   D(55,27,29,30)         55.5631         calculate D2E/DX2 analytically  !
 ! D94   D(55,27,29,31)        -60.6118         calculate D2E/DX2 analytically  !
 ! D95   D(55,27,29,33)        178.2333         calculate D2E/DX2 analytically  !
 ! D96   D(28,27,40,41)          5.8119         calculate D2E/DX2 analytically  !
 ! D97   D(28,27,40,42)       -175.7638         calculate D2E/DX2 analytically  !
 ! D98   D(29,27,40,41)       -115.332          calculate D2E/DX2 analytically  !
 ! D99   D(29,27,40,42)         63.0923         calculate D2E/DX2 analytically  !
 ! D100  D(55,27,40,41)        124.0345         calculate D2E/DX2 analytically  !
 ! D101  D(55,27,40,42)        -57.5412         calculate D2E/DX2 analytically  !
 ! D102  D(27,29,33,32)        -98.3024         calculate D2E/DX2 analytically  !
 ! D103  D(27,29,33,38)         81.2395         calculate D2E/DX2 analytically  !
 ! D104  D(30,29,33,32)         24.9332         calculate D2E/DX2 analytically  !
 ! D105  D(30,29,33,38)       -155.5249         calculate D2E/DX2 analytically  !
 ! D106  D(31,29,33,32)        141.2341         calculate D2E/DX2 analytically  !
 ! D107  D(31,29,33,38)        -39.224          calculate D2E/DX2 analytically  !
 ! D108  D(34,32,33,29)        179.839          calculate D2E/DX2 analytically  !
 ! D109  D(34,32,33,38)          0.2195         calculate D2E/DX2 analytically  !
 ! D110  D(43,32,33,29)         -6.4172         calculate D2E/DX2 analytically  !
 ! D111  D(43,32,33,38)        173.9632         calculate D2E/DX2 analytically  !
 ! D112  D(33,32,34,35)        178.3653         calculate D2E/DX2 analytically  !
 ! D113  D(33,32,34,36)         -0.3315         calculate D2E/DX2 analytically  !
 ! D114  D(43,32,34,35)          3.2648         calculate D2E/DX2 analytically  !
 ! D115  D(43,32,34,36)       -175.4319         calculate D2E/DX2 analytically  !
 ! D116  D(33,32,43,6)        -137.5449         calculate D2E/DX2 analytically  !
 ! D117  D(33,32,43,19)         79.2132         calculate D2E/DX2 analytically  !
 ! D118  D(33,32,43,61)        -42.0444         calculate D2E/DX2 analytically  !
 ! D119  D(34,32,43,6)          35.7246         calculate D2E/DX2 analytically  !
 ! D120  D(34,32,43,19)       -107.5173         calculate D2E/DX2 analytically  !
 ! D121  D(34,32,43,61)        131.225          calculate D2E/DX2 analytically  !
 ! D122  D(29,33,38,36)       -179.6282         calculate D2E/DX2 analytically  !
 ! D123  D(29,33,38,39)          1.051          calculate D2E/DX2 analytically  !
 ! D124  D(32,33,38,36)         -0.0295         calculate D2E/DX2 analytically  !
 ! D125  D(32,33,38,39)       -179.3503         calculate D2E/DX2 analytically  !
 ! D126  D(32,34,36,37)        179.2258         calculate D2E/DX2 analytically  !
 ! D127  D(32,34,36,38)          0.3192         calculate D2E/DX2 analytically  !
 ! D128  D(35,34,36,37)          0.4986         calculate D2E/DX2 analytically  !
 ! D129  D(35,34,36,38)       -178.408          calculate D2E/DX2 analytically  !
 ! D130  D(34,36,38,33)         -0.1704         calculate D2E/DX2 analytically  !
 ! D131  D(34,36,38,39)        179.2259         calculate D2E/DX2 analytically  !
 ! D132  D(37,36,38,33)       -179.0669         calculate D2E/DX2 analytically  !
 ! D133  D(37,36,38,39)          0.3294         calculate D2E/DX2 analytically  !
 ! D134  D(27,40,42,49)          1.3181         calculate D2E/DX2 analytically  !
 ! D135  D(41,40,42,49)        179.8182         calculate D2E/DX2 analytically  !
 ! D136  D(40,42,49,48)       -157.2508         calculate D2E/DX2 analytically  !
 ! D137  D(6,43,61,62)        -177.0238         calculate D2E/DX2 analytically  !
 ! D138  D(6,43,61,63)         -49.7897         calculate D2E/DX2 analytically  !
 ! D139  D(19,43,61,62)        -70.1011         calculate D2E/DX2 analytically  !
 ! D140  D(19,43,61,63)         57.133          calculate D2E/DX2 analytically  !
 ! D141  D(32,43,61,62)         82.0507         calculate D2E/DX2 analytically  !
 ! D142  D(32,43,61,63)       -150.7152         calculate D2E/DX2 analytically  !
 ! D143  D(46,44,59,57)        -19.1353         calculate D2E/DX2 analytically  !
 ! D144  D(46,44,59,60)       -156.273          calculate D2E/DX2 analytically  !
 ! D145  D(46,44,59,63)         98.6814         calculate D2E/DX2 analytically  !
 ! D146  D(50,44,59,57)       -143.7087         calculate D2E/DX2 analytically  !
 ! D147  D(50,44,59,60)         79.1536         calculate D2E/DX2 analytically  !
 ! D148  D(50,44,59,63)        -25.892          calculate D2E/DX2 analytically  !
 ! D149  D(45,44,50,48)          4.5077         calculate D2E/DX2 analytically  !
 ! D150  D(46,44,50,48)       -118.5751         calculate D2E/DX2 analytically  !
 ! D151  D(47,48,49,42)       -148.7474         calculate D2E/DX2 analytically  !
 ! D152  D(50,48,49,42)        -11.4313         calculate D2E/DX2 analytically  !
 ! D153  D(62,48,49,42)         77.9471         calculate D2E/DX2 analytically  !
 ! D154  D(47,48,50,44)       -110.1922         calculate D2E/DX2 analytically  !
 ! D155  D(49,48,50,44)        109.1045         calculate D2E/DX2 analytically  !
 ! D156  D(62,48,50,44)         11.9439         calculate D2E/DX2 analytically  !
 ! D157  D(47,48,62,61)        167.0483         calculate D2E/DX2 analytically  !
 ! D158  D(49,48,62,61)        -63.2315         calculate D2E/DX2 analytically  !
 ! D159  D(50,48,62,61)         60.4023         calculate D2E/DX2 analytically  !
 ! D160  D(11,56,59,45)         86.5022         calculate D2E/DX2 analytically  !
 ! D161  D(11,56,59,60)       -138.5753         calculate D2E/DX2 analytically  !
 ! D162  D(11,56,59,63)        -16.2991         calculate D2E/DX2 analytically  !
 ! D163  D(58,56,59,45)        -44.52           calculate D2E/DX2 analytically  !
 ! D164  D(58,56,59,60)         90.4025         calculate D2E/DX2 analytically  !
 ! D165  D(58,56,59,63)       -147.3214         calculate D2E/DX2 analytically  !
 ! D166  D(45,59,61,43)        -84.6466         calculate D2E/DX2 analytically  !
 ! D167  D(45,59,61,62)         43.4577         calculate D2E/DX2 analytically  !
 ! D168  D(57,59,61,43)         51.01           calculate D2E/DX2 analytically  !
 ! D169  D(57,59,61,62)        179.1142         calculate D2E/DX2 analytically  !
 ! D170  D(60,59,61,43)        174.412          calculate D2E/DX2 analytically  !
 ! D171  D(60,59,61,62)        -57.4838         calculate D2E/DX2 analytically  !
 ! D172  D(43,61,62,48)         39.2062         calculate D2E/DX2 analytically  !
 ! D173  D(63,61,62,48)        -96.9031         calculate D2E/DX2 analytically  !
 --------------------------------------------------------------------------------
 Trust Radius=3.00D-01 FncErr=1.00D-07 GrdErr=1.00D-06 EigMax=2.50D+02 EigMin=1.00D-04
 Number of steps in this run=    378 maximum allowed number of steps=    378.
 GradGradGradGradGradGradGradGradGradGradGradGradGradGradGradGradGradGrad

 Stoichiometry    C16H33N6O7Zn(1+)
 Framework group  C1[X(C16H33N6O7Zn)]
 Deg. of freedom   183
 Full point group                 C1      NOp   1
 Largest Abelian subgroup         C1      NOp   1
 Largest concise Abelian subgroup C1      NOp   1
                         Standard orientation:                         
 ---------------------------------------------------------------------
 Center     Atomic      Atomic             Coordinates (Angstroms)
 Number     Number       Type             X           Y           Z
 ---------------------------------------------------------------------
      1          6           0       -1.942109    4.224523    2.358280
      2          1           0       -1.640232    4.460625    3.378877
      3          6           0       -1.621224    2.767402    2.021375
      4          1           0       -2.116090    2.108216    2.737536
      5          1           0       -0.548275    2.588379    2.121731
      6          7           0       -1.107757    1.805107   -0.244394
      7          6           0       -2.014578    2.377602    0.629549
      8          6           0       -1.777636    1.570316   -1.362754
      9          1           0       -1.379539    1.104384   -2.247726
     10          7           0       -3.054639    1.933464   -1.265765
     11          1           0       -3.702580    1.459162   -1.884859
     12          6           0       -3.226044    2.453957   -0.003133
     13          1           0       -4.177551    2.813071    0.343380
     14          6           0       -4.305627   -1.753116    0.553768
     15          1           0       -4.716711   -1.792598    1.563759
     16          6           0       -2.989994   -0.972992    0.519502
     17          1           0       -3.165582    0.055409    0.845031
     18          1           0       -2.628797   -0.913955   -0.511945
     19          7           0       -0.603630   -1.106334    1.375909
     20          6           0       -1.916556   -1.563813    1.375021
     21          6           0        0.061189   -1.845844    2.247513
     22          1           0        1.112296   -1.762513    2.467262
     23          7           0       -0.750405   -2.750277    2.803702
     24          1           0       -0.479401   -3.433836    3.495269
     25          6           0       -2.006483   -2.593514    2.265726
     26          1           0       -2.837307   -3.207906    2.563587
     27          6           0        4.602398   -1.021855   -0.577925
     28          1           0        5.544896   -0.491018   -0.465873
     29          6           0        3.652027   -0.245846   -1.509960
     30          1           0        2.741759   -0.819492   -1.681489
     31          1           0        4.141487   -0.139565   -2.477527
     32          7           0        2.110837    1.382261   -0.316325
     33          6           0        3.288823    1.107988   -0.990391
     34          6           0        2.135711    2.667528   -0.009378
     35          1           0        1.355345    3.209771    0.498157
     36          7           0        3.270088    3.226640   -0.445330
     37          1           0        3.520740    4.199340   -0.343291
     38          6           0        4.014298    2.259937   -1.071214
     39          1           0        4.969550    2.468360   -1.519330
     40          6           0        3.999697   -1.182633    0.797475
     41          8           0        4.463431   -0.688782    1.794390
     42          8           0        2.868994   -1.892898    0.886585
     43         30           0        0.345139    0.316276    0.141626
     44          8           0       -1.187509   -3.424783   -1.104882
     45          1           0       -1.668360   -2.748024   -1.642703
     46          1           0       -1.582157   -3.400312   -0.225600
     47          1           0        1.914984   -3.577297   -1.850076
     48          8           0        1.496824   -2.958057   -1.241107
     49          1           0        2.531990   -2.271784    0.042804
     50          1           0        0.572499   -3.275228   -1.095610
     51          1           0       -1.420926    4.899890    1.678390
     52          1           0       -3.012403    4.415445    2.268873
     53          1           0       -5.037042   -1.267405   -0.091131
     54          1           0       -4.170394   -2.777460    0.200013
     55          1           0        4.799068   -2.008796   -1.002643
     56          8           0       -4.035118    0.220541   -2.799363
     57          1           0       -3.232144   -0.530138   -2.745347
     58          1           0       -4.887359   -0.202459   -2.660019
     59          8           0       -2.197935   -1.352617   -2.700742
     60          1           0       -2.068356   -1.667219   -3.603939
     61          8           0        0.121980   -0.608922   -1.743311
     62          1           0        0.680802   -1.402074   -1.818726
     63          1           0       -0.788537   -0.870980   -2.133481
 ---------------------------------------------------------------------
 Rotational constants (GHZ):           0.1706558           0.1179257           0.0980403
 General basis read from cards:  (5D, 7F)
 ======================================================================================================
                                       Pseudopotential Parameters
 ======================================================================================================
  Center     Atomic      Valence      Angular      Power
  Number     Number     Electrons     Momentum     of R      Exponent        Coefficient   SO-Coeffient
 ======================================================================================================
    1          6
                                   No pseudopotential on this center.
    2          1
                                   No pseudopotential on this center.
    3          6
                                   No pseudopotential on this center.
    4          1
                                   No pseudopotential on this center.
    5          1
                                   No pseudopotential on this center.
    6          7
                                   No pseudopotential on this center.
    7          6
                                   No pseudopotential on this center.
    8          6
                                   No pseudopotential on this center.
    9          1
                                   No pseudopotential on this center.
   10          7
                                   No pseudopotential on this center.
   11          1
                                   No pseudopotential on this center.
   12          6
                                   No pseudopotential on this center.
   13          1
                                   No pseudopotential on this center.
   14          6
                                   No pseudopotential on this center.
   15          1
                                   No pseudopotential on this center.
   16          6
                                   No pseudopotential on this center.
   17          1
                                   No pseudopotential on this center.
   18          1
                                   No pseudopotential on this center.
   19          7
                                   No pseudopotential on this center.
   20          6
                                   No pseudopotential on this center.
   21          6
                                   No pseudopotential on this center.
   22          1
                                   No pseudopotential on this center.
   23          7
                                   No pseudopotential on this center.
   24          1
                                   No pseudopotential on this center.
   25          6
                                   No pseudopotential on this center.
   26          1
                                   No pseudopotential on this center.
   27          6
                                   No pseudopotential on this center.
   28          1
                                   No pseudopotential on this center.
   29          6
                                   No pseudopotential on this center.
   30          1
                                   No pseudopotential on this center.
   31          1
                                   No pseudopotential on this center.
   32          7
                                   No pseudopotential on this center.
   33          6
                                   No pseudopotential on this center.
   34          6
                                   No pseudopotential on this center.
   35          1
                                   No pseudopotential on this center.
   36          7
                                   No pseudopotential on this center.
   37          1
                                   No pseudopotential on this center.
   38          6
                                   No pseudopotential on this center.
   39          1
                                   No pseudopotential on this center.
   40          6
                                   No pseudopotential on this center.
   41          8
                                   No pseudopotential on this center.
   42          8
                                   No pseudopotential on this center.
   43         30           12
                                      F and up 
                                                     1      386.7379660      -18.00000000    0.00000000
                                                     2       72.8587359     -124.35274030    0.00000000
                                                     2       15.9066170      -30.66018220    0.00000000
                                                     2        4.3502340      -10.63589890    0.00000000
                                                     2        1.2842199       -0.76836230    0.00000000
                                      S - F
                                                     0       19.0867858        3.00000000    0.00000000
                                                     1        5.0231080       22.52342250    0.00000000
                                                     2        1.2701744       48.44659420    0.00000000
                                                     2        1.0671287      -44.55601190    0.00000000
                                                     2        0.9264190       12.99839580    0.00000000
                                      P - F
                                                     0       43.4927750        5.00000000    0.00000000
                                                     1       20.8692669       20.74355890    0.00000000
                                                     2       21.7118378       90.30271580    0.00000000
                                                     2        6.3616915       74.66103160    0.00000000
                                                     2        1.2291195        9.88944240    0.00000000
                                      D - F
                                                     2       13.5851800       -4.84903590    0.00000000
                                                     2        9.8373050        3.69133790    0.00000000
                                                     2        0.8373113       -0.50373190    0.00000000
   44          8
                                   No pseudopotential on this center.
   45          1
                                   No pseudopotential on this center.
   46          1
                                   No pseudopotential on this center.
   47          1
                                   No pseudopotential on this center.
   48          8
                                   No pseudopotential on this center.
   49          1
                                   No pseudopotential on this center.
   50          1
                                   No pseudopotential on this center.
   51          1
                                   No pseudopotential on this center.
   52          1
                                   No pseudopotential on this center.
   53          1
                                   No pseudopotential on this center.
   54          1
                                   No pseudopotential on this center.
   55          1
                                   No pseudopotential on this center.
   56          8
                                   No pseudopotential on this center.
   57          1
                                   No pseudopotential on this center.
   58          1
                                   No pseudopotential on this center.
   59          8
                                   No pseudopotential on this center.
   60          1
                                   No pseudopotential on this center.
   61          8
                                   No pseudopotential on this center.
   62          1
                                   No pseudopotential on this center.
   63          1
                                   No pseudopotential on this center.
 ======================================================================================================
 There are   798 symmetry adapted cartesian basis functions of A   symmetry.
 There are   767 symmetry adapted basis functions of A   symmetry.
   767 basis functions,  1318 primitive gaussians,   798 cartesian basis functions
   119 alpha electrons      119 beta electrons
       nuclear repulsion energy      3582.9025170660 Hartrees.
 NAtoms=   63 NActive=   63 NUniq=   63 SFac= 1.00D+00 NAtFMM=   60 NAOKFM=T Big=T
 Integral buffers will be    131072 words long.
 Raffenetti 2 integral format.
 Two-electron integral symmetry is turned on.
 Force inversion solution in PCM.
 ------------------------------------------------------------------------------
 Polarizable Continuum Model (PCM)
 =================================
 Model                : PCM.
 Atomic radii         : UFF (Universal Force Field).
 Polarization charges : Total charges.
 Charge compensation  : None.
 Solution method      : Matrix inversion.
 Cavity type          : Scaled VdW (van der Waals Surface) (Alpha=1.100).
 Cavity algorithm     : GePol (No added spheres)
                        Default sphere list used, NSphG=   63.
                        Lebedev-Laikov grids with approx.  5.0 points / Ang**2.
                        Smoothing algorithm: York/Karplus (Gamma=1.0000).
                        Polarization charges: spherical gaussians, with
                                              point-specific exponents (IZeta= 3).
                        Self-potential: point-specific (ISelfS= 7).
                        Self-field    : sphere-specific E.n sum rule (ISelfD= 2).
 1st derivatives      : Analytical E(r).r(x)/FMM algorithm (CHGder, D1EAlg=3).
                        Cavity 1st derivative terms included.
 2nd derivatives      : Analytical E(r).r(xy)/FMM algorithm (CHGder, D2EAlg=3).
                        Cavity 2nd derivative terms included.
 Solvent              : Water, Eps=  78.355300 Eps(inf)=   1.777849
 ------------------------------------------------------------------------------
 One-electron integrals computed using PRISM.
   1 Symmetry operations used in ECPInt.
 ECPInt:  NShTT=   79800 NPrTT=  267559 LenC2=   66529 LenP2D=  146294.
 LDataN:  DoStor=T MaxTD1= 5 Len=  102
 Number of processors reduced to  74 by ecpmxn.
 NBasis=   767 RedAO= T EigKep=  5.57D-05  NBF=   767
 NBsUse=   767 1.00D-06 EigRej= -1.00D+00 NBFU=   767
 ExpMin= 3.51D-02 ExpMax= 2.70D+04 ExpMxC= 9.22D+02 IAcc=3 IRadAn=         5 AccDes= 0.00D+00
 Harris functional with IExCor= 1009 and IRadAn=       5 diagonalized for initial guess.
 HarFok:  IExCor= 1009 AccDes= 0.00D+00 IRadAn=         5 IDoV= 1 UseB2=F ITyADJ=14
 ICtDFT=  3500011 ScaDFX=  1.000000  1.000000  1.000000  1.000000
 FoFCou: FMM=F IPFlag=           0 FMFlag=      100000 FMFlg1=        2001
         NFxFlg=           0 DoJE=T BraDBF=F KetDBF=T FulRan=T
         wScrn=  0.000000 ICntrl=       500 IOpCl=  0 I1Cent=   200000004 NGrid=           0
         NMat0=    1 NMatS0=      1 NMatT0=    0 NMatD0=    1 NMtDS0=    0 NMtDT0=    0
 Petite list used in FoFCou.
 Requested convergence on RMS density matrix=1.00D-08 within 128 cycles.
 Requested convergence on MAX density matrix=1.00D-06.
 Requested convergence on             energy=1.00D-06.
 No special actions if energy rises.
 Inv3:  Mode=1 IEnd=    52592907.
 Iteration    1 A*A^-1 deviation from unit magnitude is 3.44D-15 for   4026.
 Iteration    1 A*A^-1 deviation from orthogonality  is 2.66D-15 for   2148    740.
 Iteration    1 A^-1*A deviation from unit magnitude is 3.55D-15 for    354.
 Iteration    1 A^-1*A deviation from orthogonality  is 2.16D-15 for   3952   3014.
 Error on total polarization charges =  0.01702
 SCF Done:  E(RM062X) =  -1550.11419110     A.U. after   13 cycles
            NFock= 13  Conv=0.48D-08     -V/T= 1.9733
 DoSCS=F DFT=T ScalE2(SS,OS)=  1.000000  1.000000
 Range of M.O.s used for correlation:     1   767
 NBasis=   767 NAE=   119 NBE=   119 NFC=     0 NFV=     0
 NROrb=    767 NOA=   119 NOB=   119 NVA=   648 NVB=   648

 **** Warning!!: The largest alpha MO coefficient is  0.20419599D+02

   1 Symmetry operations used in ECPInt.
 ECPInt:  NShTT=   79800 NPrTT=  267559 LenC2=   66529 LenP2D=  146294.
 LDataN:  DoStor=T MaxTD1= 6 Len=  172
 Number of processors reduced to  11 by ecpmxn.
 Symmetrizing basis deriv contribution to polar:
 IMax=3 JMax=2 DiffMx= 0.00D+00
 G2DrvN: will do    64 centers at a time, making    1 passes.
 Calling FoFCou, ICntrl=  3107 FMM=T I1Cent=   0 AccDes= 0.00D+00.
 NEqPCM:  Using equilibrium solvation (IEInf=0, Eps=  78.3553, EpsInf=   1.7778)
 G2PCM: DoFxE=T DoFxN=T DoGrad=T DoDP/DQ/DG/TGxP=FFFF NFrqRd=   0 IEInf=0 SqF1=F DoCFld=F IF1Alg=4.
 End of G2Drv F.D. properties file   721 does not exist.
 End of G2Drv F.D. properties file   722 does not exist.
 End of G2Drv F.D. properties file   788 does not exist.
          IDoAtm=11111111111111111111111111111111111111111111111111
          IDoAtm=1111111111111
 NEqPCM:  Using equilibrium solvation (IEInf=0, Eps=  78.3553, EpsInf=   1.7778)
          Differentiating once with respect to electric field.
                with respect to dipole field.
          Differentiating once with respect to nuclear coordinates.
 CalDSu exits because no D1Ps are significant.
          There are   192 degrees of freedom in the 1st order CPHF.  IDoFFX=6 NUNeed=     3.
    189 vectors produced by pass  0 Test12= 7.71D-14 1.00D-09 XBig12= 1.44D+02 2.85D+00.
 AX will form    96 AO Fock derivatives at one time.
    189 vectors produced by pass  1 Test12= 7.71D-14 1.00D-09 XBig12= 1.33D+01 2.77D-01.
    189 vectors produced by pass  2 Test12= 7.71D-14 1.00D-09 XBig12= 1.84D-01 3.28D-02.
    189 vectors produced by pass  3 Test12= 7.71D-14 1.00D-09 XBig12= 1.53D-03 2.53D-03.
    189 vectors produced by pass  4 Test12= 7.71D-14 1.00D-09 XBig12= 7.33D-06 1.56D-04.
    189 vectors produced by pass  5 Test12= 7.71D-14 1.00D-09 XBig12= 3.03D-08 8.44D-06.
    131 vectors produced by pass  6 Test12= 7.71D-14 1.00D-09 XBig12= 1.13D-10 7.19D-07.
     13 vectors produced by pass  7 Test12= 7.71D-14 1.00D-09 XBig12= 4.26D-13 6.96D-08.
      4 vectors produced by pass  8 Test12= 7.71D-14 1.00D-09 XBig12= 2.78D-15 6.63D-09.
      3 vectors produced by pass  9 Test12= 7.71D-14 1.00D-09 XBig12= 8.25D-16 1.19D-09.
      2 vectors produced by pass 10 Test12= 7.71D-14 1.00D-09 XBig12= 1.00D-15 1.62D-09.
 InvSVY:  IOpt=1 It=  1 EMax= 1.24D-14
 Solved reduced A of dimension  1287 with   192 vectors.
 Isotropic polarizability for W=    0.000000      347.25 Bohr**3.
 End of Minotr F.D. properties file   721 does not exist.
 End of Minotr F.D. properties file   722 does not exist.
 End of Minotr F.D. properties file   788 does not exist.

 **********************************************************************

            Population analysis using the SCF density.

 **********************************************************************

 Orbital symmetries:
       Occupied  (A) (A) (A) (A) (A) (A) (A) (A) (A) (A) (A) (A)
                 (A) (A) (A) (A) (A) (A) (A) (A) (A) (A) (A) (A)
                 (A) (A) (A) (A) (A) (A) (A) (A) (A) (A) (A) (A)
                 (A) (A) (A) (A) (A) (A) (A) (A) (A) (A) (A) (A)
                 (A) (A) (A) (A) (A) (A) (A) (A) (A) (A) (A) (A)
                 (A) (A) (A) (A) (A) (A) (A) (A) (A) (A) (A) (A)
                 (A) (A) (A) (A) (A) (A) (A) (A) (A) (A) (A) (A)
                 (A) (A) (A) (A) (A) (A) (A) (A) (A) (A) (A) (A)
                 (A) (A) (A) (A) (A) (A) (A) (A) (A) (A) (A) (A)
                 (A) (A) (A) (A) (A) (A) (A) (A) (A) (A) (A)
       Virtual   (A) (A) (A) (A) (A) (A) (A) (A) (A) (A) (A) (A)
                 (A) (A) (A) (A) (A) (A) (A) (A) (A) (A) (A) (A)
                 (A) (A) (A) (A) (A) (A) (A) (A) (A) (A) (A) (A)
                 (A) (A) (A) (A) (A) (A) (A) (A) (A) (A) (A) (A)
                 (A) (A) (A) (A) (A) (A) (A) (A) (A) (A) (A) (A)
                 (A) (A) (A) (A) (A) (A) (A) (A) (A) (A) (A) (A)
                 (A) (A) (A) (A) (A) (A) (A) (A) (A) (A) (A) (A)
                 (A) (A) (A) (A) (A) (A) (A) (A) (A) (A) (A) (A)
                 (A) (A) (A) (A) (A) (A) (A) (A) (A) (A) (A) (A)
                 (A) (A) (A) (A) (A) (A) (A) (A) (A) (A) (A) (A)
                 (A) (A) (A) (A) (A) (A) (A) (A) (A) (A) (A) (A)
                 (A) (A) (A) (A) (A) (A) (A) (A) (A) (A) (A) (A)
                 (A) (A) (A) (A) (A) (A) (A) (A) (A) (A) (A) (A)
                 (A) (A) (A) (A) (A) (A) (A) (A) (A) (A) (A) (A)
                 (A) (A) (A) (A) (A) (A) (A) (A) (A) (A) (A) (A)
                 (A) (A) (A) (A) (A) (A) (A) (A) (A) (A) (A) (A)
                 (A) (A) (A) (A) (A) (A) (A) (A) (A) (A) (A) (A)
                 (A) (A) (A) (A) (A) (A) (A) (A) (A) (A) (A) (A)
                 (A) (A) (A) (A) (A) (A) (A) (A) (A) (A) (A) (A)
                 (A) (A) (A) (A) (A) (A) (A) (A) (A) (A) (A) (A)
                 (A) (A) (A) (A) (A) (A) (A) (A) (A) (A) (A) (A)
                 (A) (A) (A) (A) (A) (A) (A) (A) (A) (A) (A) (A)
                 (A) (A) (A) (A) (A) (A) (A) (A) (A) (A) (A) (A)
                 (A) (A) (A) (A) (A) (A) (A) (A) (A) (A) (A) (A)
                 (A) (A) (A) (A) (A) (A) (A) (A) (A) (A) (A) (A)
                 (A) (A) (A) (A) (A) (A) (A) (A) (A) (A) (A) (A)
                 (A) (A) (A) (A) (A) (A) (A) (A) (A) (A) (A) (A)
                 (A) (A) (A) (A) (A) (A) (A) (A) (A) (A) (A) (A)
                 (A) (A) (A) (A) (A) (A) (A) (A) (A) (A) (A) (A)
                 (A) (A) (A) (A) (A) (A) (A) (A) (A) (A) (A) (A)
                 (A) (A) (A) (A) (A) (A) (A) (A) (A) (A) (A) (A)
                 (A) (A) (A) (A) (A) (A) (A) (A) (A) (A) (A) (A)
                 (A) (A) (A) (A) (A) (A) (A) (A) (A) (A) (A) (A)
                 (A) (A) (A) (A) (A) (A) (A) (A) (A) (A) (A) (A)
                 (A) (A) (A) (A) (A) (A) (A) (A) (A) (A) (A) (A)
                 (A) (A) (A) (A) (A) (A) (A) (A) (A) (A) (A) (A)
                 (A) (A) (A) (A) (A) (A) (A) (A) (A) (A) (A) (A)
                 (A) (A) (A) (A) (A) (A) (A) (A) (A) (A) (A) (A)
                 (A) (A) (A) (A) (A) (A) (A) (A) (A) (A) (A) (A)
                 (A) (A) (A) (A) (A) (A) (A) (A) (A) (A) (A) (A)
                 (A) (A) (A) (A) (A) (A) (A) (A) (A) (A) (A) (A)
                 (A) (A) (A) (A) (A) (A) (A) (A) (A) (A) (A) (A)
                 (A) (A) (A) (A) (A) (A) (A) (A) (A) (A) (A) (A)
                 (A) (A) (A) (A) (A) (A) (A) (A) (A) (A) (A) (A)
                 (A) (A) (A) (A) (A) (A) (A) (A) (A) (A) (A) (A)
                 (A) (A) (A) (A) (A) (A) (A) (A) (A) (A) (A) (A)
                 (A) (A) (A) (A) (A) (A) (A) (A) (A) (A) (A) (A)
                 (A) (A) (A) (A) (A) (A) (A) (A) (A) (A) (A) (A)
                 (A) (A) (A) (A) (A) (A) (A) (A) (A) (A) (A) (A)
                 (A) (A) (A) (A) (A) (A) (A) (A) (A) (A) (A) (A)
                 (A) (A) (A) (A) (A) (A) (A) (A) (A) (A) (A) (A)
                 (A) (A) (A) (A) (A) (A) (A) (A) (A) (A) (A) (A)
                 (A) (A) (A) (A) (A) (A) (A) (A) (A) (A) (A) (A)
                 (A) (A) (A) (A) (A) (A) (A) (A) (A) (A) (A) (A)
 The electronic state is 1-A.
 Alpha  occ. eigenvalues --  -19.67158 -19.65144 -19.63564 -19.62939 -19.62563
 Alpha  occ. eigenvalues --  -19.58353 -19.57557 -14.83198 -14.82967 -14.79237
 Alpha  occ. eigenvalues --  -14.78994 -14.78827 -14.77154 -10.68606 -10.62961
 Alpha  occ. eigenvalues --  -10.62785 -10.60851 -10.59007 -10.58856 -10.58787
 Alpha  occ. eigenvalues --  -10.58647 -10.57598 -10.57229 -10.56484 -10.56250
 Alpha  occ. eigenvalues --  -10.54628 -10.54464 -10.53148 -10.52867  -1.24038
 Alpha  occ. eigenvalues --   -1.17037  -1.16803  -1.16264  -1.15149  -1.14924
 Alpha  occ. eigenvalues --   -1.13708  -1.13234  -1.09234  -1.04449  -1.01692
 Alpha  occ. eigenvalues --   -1.01354  -0.99706  -0.92370  -0.90763  -0.89733
 Alpha  occ. eigenvalues --   -0.86490  -0.84236  -0.83473  -0.77985  -0.75168
 Alpha  occ. eigenvalues --   -0.74130  -0.73971  -0.73111  -0.72882  -0.72182
 Alpha  occ. eigenvalues --   -0.72001  -0.71685  -0.71422  -0.70992  -0.69450
 Alpha  occ. eigenvalues --   -0.68518  -0.67649  -0.66462  -0.65517  -0.64900
 Alpha  occ. eigenvalues --   -0.64353  -0.63854  -0.62088  -0.61310  -0.60439
 Alpha  occ. eigenvalues --   -0.58453  -0.57143  -0.56414  -0.55978  -0.55565
 Alpha  occ. eigenvalues --   -0.55127  -0.54245  -0.53993  -0.53418  -0.52898
 Alpha  occ. eigenvalues --   -0.52741  -0.52555  -0.52219  -0.52019  -0.51163
 Alpha  occ. eigenvalues --   -0.50994  -0.50871  -0.50241  -0.50071  -0.48734
 Alpha  occ. eigenvalues --   -0.47994  -0.47554  -0.46818  -0.46069  -0.45399
 Alpha  occ. eigenvalues --   -0.44377  -0.44176  -0.43723  -0.43616  -0.43002
 Alpha  occ. eigenvalues --   -0.42804  -0.42559  -0.42303  -0.41806  -0.41309
 Alpha  occ. eigenvalues --   -0.41054  -0.40479  -0.40221  -0.39869  -0.38247
 Alpha  occ. eigenvalues --   -0.37631  -0.37456  -0.36470  -0.35991  -0.35727
 Alpha  occ. eigenvalues --   -0.34592  -0.31067  -0.30886  -0.29085
 Alpha virt. eigenvalues --    0.02012   0.02786   0.03026   0.03385   0.03768
 Alpha virt. eigenvalues --    0.04194   0.04749   0.05059   0.05640   0.06679
 Alpha virt. eigenvalues --    0.06756   0.07170   0.07698   0.08122   0.08560
 Alpha virt. eigenvalues --    0.09045   0.09166   0.09761   0.10181   0.10374
 Alpha virt. eigenvalues --    0.11481   0.11655   0.12204   0.13027   0.13177
 Alpha virt. eigenvalues --    0.13857   0.13969   0.14702   0.15055   0.15375
 Alpha virt. eigenvalues --    0.15819   0.16000   0.16092   0.16253   0.16497
 Alpha virt. eigenvalues --    0.17263   0.17566   0.18499   0.18674   0.18838
 Alpha virt. eigenvalues --    0.19228   0.19412   0.19764   0.20021   0.20050
 Alpha virt. eigenvalues --    0.20554   0.21041   0.21147   0.21313   0.21856
 Alpha virt. eigenvalues --    0.21974   0.22414   0.22903   0.23098   0.23429
 Alpha virt. eigenvalues --    0.24034   0.24237   0.24670   0.25126   0.25252
 Alpha virt. eigenvalues --    0.25893   0.26159   0.26503   0.27085   0.27293
 Alpha virt. eigenvalues --    0.27600   0.28150   0.28710   0.29299   0.29375
 Alpha virt. eigenvalues --    0.29825   0.30249   0.30587   0.30834   0.31142
 Alpha virt. eigenvalues --    0.31735   0.32684   0.33171   0.33444   0.33713
 Alpha virt. eigenvalues --    0.34097   0.34478   0.34849   0.35357   0.36000
 Alpha virt. eigenvalues --    0.36449   0.36896   0.37286   0.37583   0.37934
 Alpha virt. eigenvalues --    0.38362   0.38505   0.38768   0.39732   0.39974
 Alpha virt. eigenvalues --    0.40390   0.40415   0.40811   0.41389   0.41639
 Alpha virt. eigenvalues --    0.41903   0.42379   0.42604   0.43011   0.43394
 Alpha virt. eigenvalues --    0.43785   0.43962   0.44107   0.44637   0.44913
 Alpha virt. eigenvalues --    0.45390   0.45438   0.45855   0.46205   0.46548
 Alpha virt. eigenvalues --    0.46863   0.47073   0.47104   0.47670   0.47874
 Alpha virt. eigenvalues --    0.48084   0.48876   0.49114   0.49449   0.49668
 Alpha virt. eigenvalues --    0.50234   0.50318   0.50621   0.50738   0.51130
 Alpha virt. eigenvalues --    0.51328   0.51780   0.52043   0.52159   0.52453
 Alpha virt. eigenvalues --    0.52932   0.53211   0.53376   0.54000   0.54236
 Alpha virt. eigenvalues --    0.54478   0.54979   0.55508   0.55747   0.56319
 Alpha virt. eigenvalues --    0.56715   0.56852   0.57172   0.57581   0.57835
 Alpha virt. eigenvalues --    0.58352   0.58771   0.59205   0.59802   0.60212
 Alpha virt. eigenvalues --    0.60705   0.61248   0.61344   0.61846   0.62577
 Alpha virt. eigenvalues --    0.62948   0.63210   0.63916   0.64237   0.64916
 Alpha virt. eigenvalues --    0.65462   0.65516   0.65901   0.66449   0.67300
 Alpha virt. eigenvalues --    0.67587   0.68148   0.68515   0.68695   0.69205
 Alpha virt. eigenvalues --    0.69726   0.70077   0.70396   0.71237   0.71800
 Alpha virt. eigenvalues --    0.72502   0.72714   0.73221   0.73616   0.73996
 Alpha virt. eigenvalues --    0.74052   0.74721   0.75775   0.76242   0.76618
 Alpha virt. eigenvalues --    0.77161   0.77919   0.78214   0.78753   0.79652
 Alpha virt. eigenvalues --    0.80390   0.80909   0.81316   0.81672   0.82717
 Alpha virt. eigenvalues --    0.83107   0.83308   0.83857   0.84756   0.85244
 Alpha virt. eigenvalues --    0.86526   0.87223   0.87816   0.89065   0.89195
 Alpha virt. eigenvalues --    0.89997   0.90815   0.92121   0.92599   0.95681
 Alpha virt. eigenvalues --    0.97462   0.98598   0.99291   1.02128   1.07728
 Alpha virt. eigenvalues --    1.19967   1.20576   1.24189   1.25288   1.26975
 Alpha virt. eigenvalues --    1.27274   1.27705   1.29956   1.30020   1.30301
 Alpha virt. eigenvalues --    1.30863   1.32042   1.32359   1.32932   1.33481
 Alpha virt. eigenvalues --    1.33914   1.34097   1.34503   1.34909   1.35321
 Alpha virt. eigenvalues --    1.35706   1.36061   1.36695   1.36902   1.37864
 Alpha virt. eigenvalues --    1.38263   1.38342   1.39509   1.39705   1.39898
 Alpha virt. eigenvalues --    1.40242   1.40622   1.40805   1.41346   1.41716
 Alpha virt. eigenvalues --    1.42053   1.42743   1.43334   1.43599   1.44592
 Alpha virt. eigenvalues --    1.44811   1.45409   1.45664   1.46748   1.47087
 Alpha virt. eigenvalues --    1.47276   1.47471   1.48341   1.48663   1.48750
 Alpha virt. eigenvalues --    1.49352   1.50072   1.50313   1.50478   1.50774
 Alpha virt. eigenvalues --    1.51606   1.51776   1.51876   1.52832   1.53419
 Alpha virt. eigenvalues --    1.53892   1.54286   1.54549   1.54946   1.56044
 Alpha virt. eigenvalues --    1.56489   1.56770   1.57651   1.57885   1.58289
 Alpha virt. eigenvalues --    1.59085   1.59143   1.59380   1.60181   1.60440
 Alpha virt. eigenvalues --    1.60853   1.61924   1.62201   1.62775   1.63423
 Alpha virt. eigenvalues --    1.63645   1.64464   1.64898   1.65416   1.65799
 Alpha virt. eigenvalues --    1.66130   1.66807   1.66926   1.67176   1.67910
 Alpha virt. eigenvalues --    1.68811   1.69400   1.69619   1.70274   1.70593
 Alpha virt. eigenvalues --    1.70783   1.71743   1.72619   1.73478   1.73804
 Alpha virt. eigenvalues --    1.74400   1.74582   1.75485   1.76036   1.76506
 Alpha virt. eigenvalues --    1.76963   1.78002   1.78315   1.78715   1.79472
 Alpha virt. eigenvalues --    1.79981   1.80535   1.81155   1.81497   1.81723
 Alpha virt. eigenvalues --    1.82089   1.82652   1.82769   1.82924   1.83387
 Alpha virt. eigenvalues --    1.84060   1.84299   1.84573   1.84942   1.85565
 Alpha virt. eigenvalues --    1.86185   1.86520   1.86819   1.87117   1.87689
 Alpha virt. eigenvalues --    1.88570   1.89427   1.89879   1.90518   1.90992
 Alpha virt. eigenvalues --    1.91560   1.92270   1.92804   1.94883   1.95711
 Alpha virt. eigenvalues --    1.96193   1.97015   1.97367   1.97891   1.98808
 Alpha virt. eigenvalues --    1.99404   1.99667   1.99781   2.00858   2.00945
 Alpha virt. eigenvalues --    2.01212   2.02030   2.02385   2.02986   2.03839
 Alpha virt. eigenvalues --    2.04268   2.05192   2.05334   2.05766   2.06950
 Alpha virt. eigenvalues --    2.08205   2.08370   2.09028   2.10217   2.10871
 Alpha virt. eigenvalues --    2.12267   2.12476   2.13494   2.14135   2.14499
 Alpha virt. eigenvalues --    2.15024   2.16201   2.16571   2.17005   2.18799
 Alpha virt. eigenvalues --    2.19250   2.19869   2.20739   2.21078   2.22124
 Alpha virt. eigenvalues --    2.22595   2.23076   2.24525   2.25157   2.26318
 Alpha virt. eigenvalues --    2.27802   2.28654   2.28911   2.29307   2.29875
 Alpha virt. eigenvalues --    2.30423   2.30816   2.31028   2.31150   2.31762
 Alpha virt. eigenvalues --    2.31840   2.32470   2.33243   2.33460   2.34066
 Alpha virt. eigenvalues --    2.34286   2.35641   2.35967   2.37186   2.37381
 Alpha virt. eigenvalues --    2.38314   2.38871   2.39177   2.40030   2.40401
 Alpha virt. eigenvalues --    2.41771   2.42746   2.43594   2.44745   2.45135
 Alpha virt. eigenvalues --    2.45596   2.45933   2.46771   2.47023   2.47694
 Alpha virt. eigenvalues --    2.48534   2.49281   2.49581   2.50407   2.51083
 Alpha virt. eigenvalues --    2.51562   2.52431   2.52952   2.53462   2.54263
 Alpha virt. eigenvalues --    2.54588   2.55268   2.55350   2.56109   2.57041
 Alpha virt. eigenvalues --    2.57944   2.58852   2.58961   2.59139   2.59560
 Alpha virt. eigenvalues --    2.60340   2.60836   2.61428   2.61634   2.62415
 Alpha virt. eigenvalues --    2.63139   2.63524   2.63723   2.65009   2.65406
 Alpha virt. eigenvalues --    2.65898   2.66174   2.67160   2.67785   2.67969
 Alpha virt. eigenvalues --    2.70304   2.71592   2.71646   2.72214   2.72569
 Alpha virt. eigenvalues --    2.73720   2.73885   2.74984   2.75299   2.75550
 Alpha virt. eigenvalues --    2.75971   2.76415   2.76780   2.77325   2.77743
 Alpha virt. eigenvalues --    2.78083   2.78447   2.78865   2.79342   2.79553
 Alpha virt. eigenvalues --    2.80544   2.80680   2.81115   2.81896   2.82095
 Alpha virt. eigenvalues --    2.82678   2.83443   2.83717   2.84121   2.84389
 Alpha virt. eigenvalues --    2.85061   2.85165   2.85429   2.86318   2.86687
 Alpha virt. eigenvalues --    2.87248   2.88059   2.88426   2.88970   2.89509
 Alpha virt. eigenvalues --    2.90754   2.91182   2.92234   2.92799   2.93210
 Alpha virt. eigenvalues --    2.94115   2.94230   2.95416   2.96306   2.96826
 Alpha virt. eigenvalues --    2.97249   2.97979   2.99297   2.99581   3.00570
 Alpha virt. eigenvalues --    3.01165   3.01945   3.02877   3.03060   3.04190
 Alpha virt. eigenvalues --    3.04630   3.04742   3.06503   3.07950   3.08553
 Alpha virt. eigenvalues --    3.09110   3.09806   3.10660   3.11239   3.12633
 Alpha virt. eigenvalues --    3.13071   3.14050   3.14745   3.16167   3.16704
 Alpha virt. eigenvalues --    3.17276   3.18188   3.18797   3.19749   3.20228
 Alpha virt. eigenvalues --    3.21045   3.21411   3.21663   3.22909   3.23908
 Alpha virt. eigenvalues --    3.24406   3.24908   3.25385   3.26557   3.26647
 Alpha virt. eigenvalues --    3.27352   3.28478   3.29356   3.30319   3.30603
 Alpha virt. eigenvalues --    3.32787   3.33226   3.33303   3.33583   3.34925
 Alpha virt. eigenvalues --    3.35126   3.37619   3.37903   3.38512   3.38777
 Alpha virt. eigenvalues --    3.40270   3.42818   3.43344   3.44103   3.44581
 Alpha virt. eigenvalues --    3.46048   3.47374   3.48322   3.51285   3.53299
 Alpha virt. eigenvalues --    3.54019   3.55753   3.57274   3.62818   3.64912
 Alpha virt. eigenvalues --    3.65745   3.66747   3.67692   3.68816   3.71463
 Alpha virt. eigenvalues --    3.84226   3.85207   3.88744   3.90839   3.91319
 Alpha virt. eigenvalues --    3.99272   4.01698   4.08784   4.16399   4.18717
 Alpha virt. eigenvalues --    4.27979   4.30827   4.35643   4.37599   4.47140
 Alpha virt. eigenvalues --    4.47896   4.57284   4.81167  11.12150  21.95774
 Alpha virt. eigenvalues --   22.01597  22.04965  22.16903  22.18481  22.20626
 Alpha virt. eigenvalues --   22.21600  22.22230  22.23486  22.24593  22.28398
 Alpha virt. eigenvalues --   22.29155  22.29886  22.32539  22.34520  22.40062
 Alpha virt. eigenvalues --   31.96198  31.99683  32.07301  32.10284  32.15070
 Alpha virt. eigenvalues --   32.17416  43.55788  43.62700  43.63207  43.68834
 Alpha virt. eigenvalues --   43.72989  43.77156  43.82824
          Condensed to atoms (all electrons):
 Mulliken charges:
               1
     1  C   -0.429004
     2  H    0.154713
     3  C   -0.314969
     4  H    0.183130
     5  H    0.149172
     6  N   -0.416106
     7  C   -0.010493
     8  C   -0.023362
     9  H    0.198091
    10  N   -0.191000
    11  H    0.333756
    12  C   -0.061605
    13  H    0.190951
    14  C   -0.482607
    15  H    0.163568
    16  C   -0.287682
    17  H    0.208743
    18  H    0.070873
    19  N   -0.341903
    20  C   -0.126900
    21  C    0.048826
    22  H    0.203602
    23  N   -0.203507
    24  H    0.321108
    25  C   -0.026730
    26  H    0.210771
    27  C   -0.396296
    28  H    0.197797
    29  C   -0.469712
    30  H    0.169676
    31  H    0.211094
    32  N   -0.352264
    33  C    0.034856
    34  C    0.069627
    35  H    0.187551
    36  N   -0.211982
    37  H    0.321149
    38  C   -0.036780
    39  H    0.199415
    40  C    0.377428
    41  O   -0.407726
    42  O   -0.360915
    43  Zn   1.407435
    44  O   -0.654592
    45  H    0.347583
    46  H    0.327888
    47  H    0.357733
    48  O   -0.700313
    49  H    0.360848
    50  H    0.378661
    51  H    0.144329
    52  H    0.148330
    53  H    0.154480
    54  H    0.154917
    55  H    0.230274
    56  O   -0.763440
    57  H    0.342058
    58  H    0.312047
    59  O   -0.893052
    60  H    0.314492
    61  O   -0.703805
    62  H    0.338079
    63  H    0.341692
 Sum of Mulliken charges =   1.00000
 Mulliken charges with hydrogens summed into heavy atoms:
               1
     1  C    0.018367
     3  C    0.017333
     6  N   -0.416106
     7  C   -0.010493
     8  C    0.174728
    10  N    0.142756
    12  C    0.129346
    14  C   -0.009641
    16  C   -0.008066
    19  N   -0.341903
    20  C   -0.126900
    21  C    0.252429
    23  N    0.117601
    25  C    0.184041
    27  C    0.031775
    29  C   -0.088942
    32  N   -0.352264
    33  C    0.034856
    34  C    0.257178
    36  N    0.109167
    38  C    0.162636
    40  C    0.377428
    41  O   -0.407726
    42  O   -0.000067
    43  Zn   1.407435
    44  O    0.020878
    48  O    0.036081
    56  O   -0.109335
    59  O   -0.578560
    61  O   -0.024033
 APT charges:
               1
     1  C    0.059919
     2  H   -0.024034
     3  C    0.154204
     4  H   -0.036943
     5  H   -0.030146
     6  N   -0.796373
     7  C    0.162826
     8  C    0.295007
     9  H    0.164698
    10  N   -0.714848
    11  H    0.761620
    12  C   -0.026654
    13  H    0.129586
    14  C    0.064441
    15  H   -0.011432
    16  C    0.042904
    17  H    0.028870
    18  H    0.051232
    19  N   -0.797214
    20  C    0.209849
    21  C    0.344766
    22  H    0.184889
    23  N   -0.492377
    24  H    0.367604
    25  C   -0.076526
    26  H    0.153678
    27  C   -0.090785
    28  H    0.022163
    29  C    0.150652
    30  H    0.020127
    31  H   -0.000722
    32  N   -0.751817
    33  C    0.170637
    34  C    0.310218
    35  H    0.153393
    36  N   -0.484298
    37  H    0.367659
[...]
 Alpha virt. eigenvalues --    0.84808   0.84843   0.85527   0.86395   0.87460
 Alpha virt. eigenvalues --    0.87608   0.88060   0.88262   0.89534   0.90076
 Alpha virt. eigenvalues --    0.90455   0.90708   0.90845   0.91554   0.91755
 Alpha virt. eigenvalues --    0.93322   0.93429   0.93745   0.94269   0.95055
 Alpha virt. eigenvalues --    0.95385   0.95687   0.96031   0.96733   0.97622
 Alpha virt. eigenvalues --    0.98021   0.99298   0.99460   1.00560   1.00904
 Alpha virt. eigenvalues --    1.01520   1.02035   1.02827   1.03506   1.03581
 Alpha virt. eigenvalues --    1.04217   1.05056   1.06058   1.06734   1.07072
 Alpha virt. eigenvalues --    1.07287   1.08573   1.09264   1.10256   1.10304
 Alpha virt. eigenvalues --    1.10920   1.11147   1.12623   1.13378   1.13668
 Alpha virt. eigenvalues --    1.14106   1.14768   1.15246   1.15681   1.16503
 Alpha virt. eigenvalues --    1.16984   1.17055   1.18191   1.18490   1.19676
 Alpha virt. eigenvalues --    1.20295   1.21039   1.21361   1.21986   1.22733
 Alpha virt. eigenvalues --    1.23040   1.23093   1.25340   1.25603   1.25639
 Alpha virt. eigenvalues --    1.26103   1.26797   1.27551   1.27982   1.28357
 Alpha virt. eigenvalues --    1.29822   1.30739   1.30964   1.31519   1.31921
 Alpha virt. eigenvalues --    1.32050   1.33037   1.33494   1.33883   1.34020
 Alpha virt. eigenvalues --    1.34665   1.35633   1.35821   1.36539   1.36997
 Alpha virt. eigenvalues --    1.37624   1.37904   1.38432   1.39074   1.39458
 Alpha virt. eigenvalues --    1.39967   1.40872   1.41507   1.41953   1.42795
 Alpha virt. eigenvalues --    1.43163   1.43576   1.43771   1.44300   1.45254
 Alpha virt. eigenvalues --    1.45792   1.46261   1.46904   1.47390   1.48255
 Alpha virt. eigenvalues --    1.49133   1.50231   1.50852   1.51125   1.51431
 Alpha virt. eigenvalues --    1.52129   1.52968   1.53547   1.54561   1.54952
 Alpha virt. eigenvalues --    1.55141   1.55624   1.56578   1.56943   1.57194
 Alpha virt. eigenvalues --    1.57519   1.58536   1.59001   1.59570   1.59788
 Alpha virt. eigenvalues --    1.60057   1.60260   1.60632   1.60756   1.61803
 Alpha virt. eigenvalues --    1.61897   1.62460   1.63200   1.63466   1.64220
 Alpha virt. eigenvalues --    1.64794   1.64864   1.65278   1.65907   1.66206
 Alpha virt. eigenvalues --    1.66727   1.67407   1.67562   1.67828   1.68361
 Alpha virt. eigenvalues --    1.68999   1.69510   1.69947   1.70623   1.70874
 Alpha virt. eigenvalues --    1.71150   1.71717   1.72103   1.72650   1.73100
 Alpha virt. eigenvalues --    1.73353   1.74461   1.75024   1.75231   1.75857
 Alpha virt. eigenvalues --    1.75928   1.76923   1.77472   1.77990   1.78212
 Alpha virt. eigenvalues --    1.78439   1.78922   1.79598   1.80203   1.80462
 Alpha virt. eigenvalues --    1.80893   1.81927   1.82118   1.82692   1.83158
 Alpha virt. eigenvalues --    1.83873   1.84528   1.84618   1.85654   1.86124
 Alpha virt. eigenvalues --    1.86488   1.86761   1.87330   1.87574   1.88028
 Alpha virt. eigenvalues --    1.88822   1.88930   1.90382   1.90742   1.91090
 Alpha virt. eigenvalues --    1.92219   1.92360   1.93130   1.93977   1.94371
 Alpha virt. eigenvalues --    1.95100   1.95286   1.96538   1.97487   1.97649
 Alpha virt. eigenvalues --    1.98073   1.98739   1.99327   1.99697   2.00651
 Alpha virt. eigenvalues --    2.01293   2.01958   2.02625   2.03247   2.04093
 Alpha virt. eigenvalues --    2.04457   2.04923   2.06211   2.06771   2.06995
 Alpha virt. eigenvalues --    2.07398   2.08100   2.08670   2.09282   2.09655
 Alpha virt. eigenvalues --    2.09815   2.11051   2.11597   2.12020   2.12051
 Alpha virt. eigenvalues --    2.12637   2.12948   2.13787   2.14016   2.14414
 Alpha virt. eigenvalues --    2.14974   2.15500   2.16244   2.16630   2.17033
 Alpha virt. eigenvalues --    2.17430   2.18127   2.18475   2.18781   2.19516
 Alpha virt. eigenvalues --    2.20410   2.20530   2.21242   2.21765   2.22437
 Alpha virt. eigenvalues --    2.23075   2.23840   2.24181   2.25248   2.25699
 Alpha virt. eigenvalues --    2.26933   2.27412   2.27913   2.29044   2.29495
 Alpha virt. eigenvalues --    2.30274   2.31228   2.31804   2.33093   2.33387
 Alpha virt. eigenvalues --    2.33679   2.34303   2.34868   2.35467   2.36152
 Alpha virt. eigenvalues --    2.36689   2.36878   2.37163   2.37488   2.38124
 Alpha virt. eigenvalues --    2.38379   2.38991   2.39511   2.39679   2.40898
 Alpha virt. eigenvalues --    2.41020   2.41593   2.41752   2.42263   2.42821
 Alpha virt. eigenvalues --    2.43411   2.44135   2.44695   2.44940   2.45488
 Alpha virt. eigenvalues --    2.46308   2.47133   2.47329   2.48010   2.48491
 Alpha virt. eigenvalues --    2.48891   2.49731   2.50089   2.50930   2.51360
 Alpha virt. eigenvalues --    2.51945   2.52470   2.53174   2.53266   2.54490
 Alpha virt. eigenvalues --    2.55107   2.56391   2.57370   2.57672   2.58565
 Alpha virt. eigenvalues --    2.59040   2.59393   2.60032   2.60532   2.61321
 Alpha virt. eigenvalues --    2.61753   2.62538   2.63136   2.63416   2.63768
 Alpha virt. eigenvalues --    2.64630   2.64674   2.65388   2.65758   2.66024
 Alpha virt. eigenvalues --    2.66264   2.66967   2.67672   2.67859   2.68292
 Alpha virt. eigenvalues --    2.68630   2.68828   2.69586   2.70011   2.70367
 Alpha virt. eigenvalues --    2.71074   2.71518   2.72459   2.73107   2.73709
 Alpha virt. eigenvalues --    2.74298   2.75157   2.75377   2.75533   2.76013
 Alpha virt. eigenvalues --    2.76744   2.76930   2.77685   2.77959   2.78254
 Alpha virt. eigenvalues --    2.78708   2.79821   2.80363   2.80879   2.81377
 Alpha virt. eigenvalues --    2.81866   2.83337   2.83618   2.84712   2.85166
 Alpha virt. eigenvalues --    2.85974   2.86241   2.86935   2.87325   2.88215
 Alpha virt. eigenvalues --    2.88612   2.88858   2.89281   2.89704   2.90005
 Alpha virt. eigenvalues --    2.90470   2.90995   2.91462   2.91766   2.92296
 Alpha virt. eigenvalues --    2.92758   2.92915   2.93317   2.94242   2.94659
 Alpha virt. eigenvalues --    2.95062   2.95897   2.96389   2.97736   2.98178
 Alpha virt. eigenvalues --    2.98540   2.98847   2.99725   2.99872   3.00399
 Alpha virt. eigenvalues --    3.00849   3.01320   3.01941   3.02183   3.02367
 Alpha virt. eigenvalues --    3.03522   3.04418   3.04614   3.05062   3.05775
 Alpha virt. eigenvalues --    3.06665   3.06853   3.07117   3.08012   3.08258
 Alpha virt. eigenvalues --    3.09009   3.09418   3.09686   3.10366   3.10850
 Alpha virt. eigenvalues --    3.11125   3.11446   3.12798   3.13110   3.13416
 Alpha virt. eigenvalues --    3.14116   3.14662   3.15314   3.16012   3.16405
 Alpha virt. eigenvalues --    3.16758   3.17855   3.18125   3.18267   3.18707
 Alpha virt. eigenvalues --    3.19024   3.19611   3.19854   3.20480   3.21411
 Alpha virt. eigenvalues --    3.22031   3.22180   3.22414   3.23055   3.23598
 Alpha virt. eigenvalues --    3.24456   3.25002   3.25686   3.27158   3.27449
 Alpha virt. eigenvalues --    3.28081   3.29011   3.29265   3.29731   3.30171
 Alpha virt. eigenvalues --    3.31535   3.31809   3.32184   3.32249   3.32682
 Alpha virt. eigenvalues --    3.33042   3.33682   3.34364   3.34487   3.35088
 Alpha virt. eigenvalues --    3.35323   3.35754   3.35992   3.36303   3.37422
 Alpha virt. eigenvalues --    3.38186   3.38723   3.39167   3.39695   3.40491
 Alpha virt. eigenvalues --    3.40810   3.41018   3.41284   3.42281   3.43527
 Alpha virt. eigenvalues --    3.44629   3.45138   3.46034   3.46226   3.46385
 Alpha virt. eigenvalues --    3.47257   3.47415   3.48099   3.48543   3.49444
 Alpha virt. eigenvalues --    3.49745   3.50282   3.51679   3.52162   3.52562
 Alpha virt. eigenvalues --    3.52841   3.54316   3.55002   3.55758   3.56586
 Alpha virt. eigenvalues --    3.57043   3.57789   3.58036   3.58688   3.59076
 Alpha virt. eigenvalues --    3.59887   3.60644   3.61353   3.61962   3.62947
 Alpha virt. eigenvalues --    3.63246   3.64304   3.65197   3.65448   3.66476
 Alpha virt. eigenvalues --    3.67056   3.69090   3.69172   3.69779   3.70279
 Alpha virt. eigenvalues --    3.71170   3.71695   3.72700   3.74215   3.75326
 Alpha virt. eigenvalues --    3.76986   3.77491   3.78766   3.79070   3.79559
 Alpha virt. eigenvalues --    3.80017   3.81286   3.82265   3.83969   3.84143
 Alpha virt. eigenvalues --    3.86192   3.86280   3.87452   3.88582   3.88910
 Alpha virt. eigenvalues --    3.90538   3.91590   3.91950   3.92244   3.92999
 Alpha virt. eigenvalues --    3.94446   3.95490   3.96280   3.96582   3.97392
 Alpha virt. eigenvalues --    3.98074   3.98673   3.99041   3.99310   3.99434
 Alpha virt. eigenvalues --    4.00193   4.00848   4.02156   4.02318   4.03772
 Alpha virt. eigenvalues --    4.04718   4.09574   4.09980   4.13200   4.14032
 Alpha virt. eigenvalues --    4.14939   4.15224   4.16178   4.16825   4.19078
 Alpha virt. eigenvalues --    4.20884   4.22988   4.24349   4.25242   4.26664
 Alpha virt. eigenvalues --    4.29040   4.29553   4.30201   4.31368   4.31975
 Alpha virt. eigenvalues --    4.32914   4.35160   4.36009   4.37590   4.39410
 Alpha virt. eigenvalues --    4.40930   4.41603   4.41792   4.43175   4.43470
 Alpha virt. eigenvalues --    4.44495   4.48037   4.49397   4.50159   4.50297
 Alpha virt. eigenvalues --    4.51545   4.55061   4.56648   4.58022   4.58375
 Alpha virt. eigenvalues --    4.60880   4.61783   4.62386   4.62752   4.64555
 Alpha virt. eigenvalues --    4.64897   4.66136   4.66805   4.67902   4.69007
 Alpha virt. eigenvalues --    4.69334   4.69546   4.71879   4.73414   4.74246
 Alpha virt. eigenvalues --    4.75550   4.76339   4.77447   4.77948   4.80036
 Alpha virt. eigenvalues --    4.81429   4.82956   4.83711   4.84548   4.84798
 Alpha virt. eigenvalues --    4.85625   4.86112   4.87771   4.88918   4.89367
 Alpha virt. eigenvalues --    4.90556   4.91253   4.92028   4.93601   4.96643
 Alpha virt. eigenvalues --    4.98388   4.98657   4.99265   5.01232   5.02019
 Alpha virt. eigenvalues --    5.03512   5.04839   5.07514   5.10005   5.10287
 Alpha virt. eigenvalues --    5.11400   5.12048   5.12277   5.13766   5.14447
 Alpha virt. eigenvalues --    5.14838   5.16691   5.17684   5.18139   5.18398
 Alpha virt. eigenvalues --    5.19009   5.20605   5.21172   5.21563   5.21877
 Alpha virt. eigenvalues --    5.22275   5.22809   5.23793   5.24760   5.25352
 Alpha virt. eigenvalues --    5.27697   5.28449   5.29111   5.29565   5.30660
 Alpha virt. eigenvalues --    5.31736   5.32080   5.34371   5.34945   5.35127
 Alpha virt. eigenvalues --    5.35669   5.35789   5.36869   5.39347   5.39655
 Alpha virt. eigenvalues --    5.39952   5.40308   5.40450   5.40790   5.41200
 Alpha virt. eigenvalues --    5.41286   5.41597   5.41763   5.42023   5.42864
 Alpha virt. eigenvalues --    5.43862   5.44507   5.45122   5.45775   5.47142
 Alpha virt. eigenvalues --    5.48317   5.48662   5.48963   5.49730   5.49824
 Alpha virt. eigenvalues --    5.50506   5.51190   5.51579   5.55227   5.56283
 Alpha virt. eigenvalues --    5.57782   5.58570   5.59139   5.61282   5.62484
 Alpha virt. eigenvalues --    5.62602   5.63949   5.79151   5.84031   5.84838
 Alpha virt. eigenvalues --    5.85869   5.89375   5.92752   5.96718   5.97137
 Alpha virt. eigenvalues --    5.98692   5.99207   5.99739   6.00743   6.01350
 Alpha virt. eigenvalues --    6.01542   6.04269   6.09724   6.16138   6.17427
 Alpha virt. eigenvalues --    6.20446   6.21455   6.24423   6.25071   6.33080
 Alpha virt. eigenvalues --    6.34543   6.35393   6.36564   6.37771   6.39201
 Alpha virt. eigenvalues --    6.39583   6.40672   6.43012   6.44383   6.45494
 Alpha virt. eigenvalues --    6.47645   6.48484   6.49204   6.52135   6.52793
 Alpha virt. eigenvalues --    6.56959   6.60368   6.66075   6.67287   6.74150
 Alpha virt. eigenvalues --    6.75388   6.81382   6.82385   6.86575   6.93132
 Alpha virt. eigenvalues --    6.94028   6.96469   7.01215   7.01975   7.03646
 Alpha virt. eigenvalues --    7.06098   7.07233   7.07394   7.10942   7.11605
 Alpha virt. eigenvalues --    7.23608   7.30952  22.46788  22.50612  22.59914
 Alpha virt. eigenvalues --   22.64341  22.65777  22.71206  22.75040  22.76022
 Alpha virt. eigenvalues --   22.83257  23.00009  23.01229  23.06352  23.27260
 Alpha virt. eigenvalues --   23.28437  23.28712  23.42487  32.38473  32.40976
 Alpha virt. eigenvalues --   32.44569  32.59568  32.68630  32.72566  43.62640
 Alpha virt. eigenvalues --   43.72448  43.80403  43.82461  43.97443  44.02209
 Alpha virt. eigenvalues --   44.16987  69.28547  69.33023  69.39400  88.97808
          Condensed to atoms (all electrons):
 Mulliken charges:
               1
     1  C   -0.472122
     2  H    0.162651
     3  C   -0.316788
     4  H    0.173763
     5  H    0.165714
     6  N   -0.339286
     7  C    0.063674
     8  C    0.030473
     9  H    0.217750
    10  N   -0.210992
    11  H    0.314524
    12  C   -0.121698
    13  H    0.213552
    14  C   -0.482193
    15  H    0.170679
    16  C   -0.213264
    17  H    0.180606
    18  H    0.092881
    19  N   -0.295938
    20  C   -0.068123
    21  C    0.068342
    22  H    0.222175
    23  N   -0.240472
    24  H    0.318512
    25  C   -0.074648
    26  H    0.223245
    27  C   -0.334917
    28  H    0.182389
    29  C   -0.384923
    30  H    0.173892
    31  H    0.193348
    32  N   -0.296637
    33  C    0.113422
    34  C    0.087923
    35  H    0.229283
    36  N   -0.243760
    37  H    0.320388
    38  C   -0.086774
    39  H    0.215961
    40  C    0.428325
    41  O   -0.468670
    42  O   -0.453730
    43  Zn   0.874412
    44  O   -0.758699
    45  H    0.394681
    46  H    0.398509
    47  H    0.402913
    48  O   -0.785046
    49  H    0.407845
    50  H    0.420417
    51  H    0.161544
    52  H    0.161473
    53  H    0.162914
    54  H    0.165713
    55  H    0.208292
    56  O   -0.787617
    57  H    0.397938
    58  H    0.382586
    59  O   -0.865824
    60  H    0.386943
    61  O   -0.978232
    62  H    0.357290
    63  H    0.433411
 Sum of Mulliken charges =   1.00000
 Mulliken charges with hydrogens summed into heavy atoms:
               1
     1  C    0.013546
     3  C    0.022689
     6  N   -0.339286
     7  C    0.063674
     8  C    0.248223
    10  N    0.103532
    12  C    0.091855
    14  C    0.017113
    16  C    0.060222
    19  N   -0.295938
    20  C   -0.068123
    21  C    0.290516
    23  N    0.078040
    25  C    0.148597
    27  C    0.055765
    29  C   -0.017682
    32  N   -0.296637
    33  C    0.113422
    34  C    0.317206
    36  N    0.076628
    38  C    0.129187
    40  C    0.428325
    41  O   -0.468670
    42  O   -0.045885
    43  Zn   0.874412
    44  O    0.034490
    48  O    0.038285
    56  O   -0.007093
    59  O   -0.045469
    61  O   -0.620942
 Electronic spatial extent (au):  <R**2>=          12725.4203
 Charge=              1.0000 electrons
 Dipole moment (field-independent basis, Debye):
    X=             -0.8884    Y=              1.6575    Z=              0.0936  Tot=              1.8829
 Quadrupole moment (field-independent basis, Debye-Ang):
   XX=           -148.9456   YY=           -127.1427   ZZ=           -153.7390
   XY=             10.7351   XZ=            -24.3809   YZ=             -4.4735
 Traceless Quadrupole moment (field-independent basis, Debye-Ang):
   XX=             -5.6698   YY=             16.1330   ZZ=            -10.4632
   XY=             10.7351   XZ=            -24.3809   YZ=             -4.4735
 Octapole moment (field-independent basis, Debye-Ang**2):
  XXX=            -61.8161  YYY=             48.7985  ZZZ=            -24.3801  XYY=             97.9139
  XXY=             71.4201  XXZ=           -192.2908  XZZ=            -87.6820  YZZ=           -111.4523
  YYZ=             28.4309  XYZ=             19.0653
 Hexadecapole moment (field-independent basis, Debye-Ang**3):
 XXXX=          -7963.8389 YYYY=          -4294.9994 ZZZZ=          -2283.4813 XXXY=            149.5901
 XXXZ=           -345.6589 YYYX=            220.4200 YYYZ=            -52.6619 ZZZX=            238.5176
 ZZZY=            -80.7890 XXYY=          -1603.7664 XXZZ=          -1700.8909 YYZZ=           -979.5779
 XXYZ=             31.2316 YYXZ=           -108.9772 ZZXY=            105.7277
 N-N= 3.833583131410D+03 E-N=-1.167376822432D+04  KE= 1.631549347363D+03
 1\1\GINC-C73N07\SP\RM062X\GenECP\C16H33N6O7Zn1(1+)\DONGH_N\26-Aug-2024
 \0\\# geom(allcheck,modredundant) genecp scrf(SMD) m062x\\Title Card R
 equired\\1,1\C,0,-1.9416135069,4.2252796695,2.3585395789\H,0,-1.568141
 1776,4.4186921959,3.3636611195\C,0,-1.5057752753,2.8386849831,1.882802
 3225\H,0,-1.8741831715,2.0778810672,2.5775210448\H,0,-0.4173144727,2.7
 578089427,1.9022083576\N,0,-1.2424444516,1.7527174536,-0.3829545439\C,
 0,-1.9843457368,2.5106017881,0.5028997618\C,0,-1.978639068,1.605409462
 8,-1.4714562246\H,0,-1.6959099594,1.0467282622,-2.348011745\N,0,-3.149
 1023981,2.2319520689,-1.3323620313\H,0,-3.901181549,2.1396621903,-2.00
 4620094\C,0,-3.1774372584,2.8177688059,-0.0903357075\H,0,-4.0257187467
 ,3.3800648523,0.2569038187\C,0,-4.3062090537,-1.7519415824,0.554025652
 7\H,0,-4.7334964554,-1.6841746724,1.5556570249\C,0,-3.0251724518,-0.92
 18505508,0.4393590926\H,0,-3.2484752042,0.1305527744,0.6397875765\H,0,
 -2.6492165133,-0.9674522238,-0.5857501743\N,0,-0.6302159773,-0.9239255
 394,1.3015722259\C,0,-1.9427430654,-1.375378512,1.3692533476\C,0,0.035
 8484826,-1.5325227794,2.2659350399\H,0,1.0885461671,-1.421927522,2.466
 9376929\N,0,-0.7749956787,-2.3487421067,2.9497812515\H,0,-0.5024603214
 ,-2.9284960604,3.7297416236\C,0,-2.0313396204,-2.2690380499,2.39777846
 69\H,0,-2.8605610987,-2.837398768,2.7794171145\C,0,4.6020145607,-1.022
 2940871,-0.5776832316\H,0,5.57987181,-0.5500165311,-0.5179119592\C,0,3
 .6495026001,-0.1938362014,-1.462610655\H,0,2.7209641094,-0.7388081702,
 -1.6252046512\H,0,4.1171372014,-0.0628798971,-2.4380945795\N,0,2.11682
 35457,1.4186824981,-0.2515892168\C,0,3.3218157422,1.1414884603,-0.8761
 365195\C,0,2.1802805837,2.6736510192,0.1555653853\H,0,1.4003617162,3.2
 182223439,0.6597384718\N,0,3.3634628619,3.2097379445,-0.1672335624\H,0
 ,3.650805511,4.1574393745,0.0291597802\C,0,4.1025443972,2.2584505064,-
 0.8216984491\H,0,5.0948065937,2.4519408393,-1.1887972898\C,0,4.0590360
 003,-1.1312309612,0.8286029356\O,0,4.6089110209,-0.6586066873,1.793586
 4428\O,0,2.8876809469,-1.7517523011,0.977079987\Zn,0,0.3047601262,0.31
 02808644,-0.1592917231\O,0,-1.0201886276,-3.4728543072,-0.8885690838\H
 ,0,-1.4966355433,-2.8804588802,-1.5074273059\H,0,-1.4217569419,-3.3296
 768727,-0.0225104958\H,0,2.0534715527,-3.6629713005,-1.4960469031\O,0,
 1.6375131075,-2.8983370623,-1.0831964883\H,0,2.510758593,-2.1571779697
 ,0.1522527242\H,0,0.6899733592,-3.1363138131,-0.9401920409\H,0,-1.5602
 526085,4.9994872452,1.6918929139\H,0,-3.0291822163,4.3052886676,2.3851
 637595\H,0,-5.0484514626,-1.3887527268,-0.1556084221\H,0,-4.1136682177
 ,-2.8043387304,0.3356992754\H,0,4.7155451809,-2.0216474922,-1.00368932
 76\O,0,-4.1200470494,0.237078609,-3.0555985389\H,0,-3.4361768259,-0.45
 22043419,-2.9309212507\H,0,-4.6553343987,-0.0587310135,-3.7974582239\O
 ,0,-2.0172087214,-1.600560478,-2.728482771\H,0,-1.8710271263,-1.954997
 1611,-3.6125870513\O,0,0.0905503677,-0.5387602343,-1.9417866941\H,0,0.
 7307862193,-1.2499448251,-2.0607554206\H,0,-1.1253572325,-1.1145373919
 ,-2.4450858698\\Version=ES64L-G16RevA.03\State=1-A\HF=-1711.9819126\RM
 SD=7.473e-09\Dipole=-0.3288622,0.6623084,0.0445959\Quadrupole=-2.21749
 81,11.5753225,-9.3578244,9.1672329,-17.7247066,-1.7236398\PG=C01 [X(C1
 6H33N6O7Zn1)]\\@


  THE LARGE PRINT GIVETH,
  AND THE SMALL PRINT TAKETH AWAY.

                     -- TOM WAITS
 Job cpu time:       0 days  4 hours  3 minutes 32.1 seconds.
 Elapsed time:       0 days  0 hours 10 minutes 13.9 seconds.
 File lengths (MBytes):  RWF=   1002 Int=      0 D2E=      0 Chk=    144 Scr=      1
 Normal termination of Gaussian 16 at Mon Aug 26 07:22:11 2024.
