 Entering Gaussian System, Link 0=g16
 Initial command:
 /share/home/dongh_N/wxy/software/g16/l1.exe "/tmp/Gau-120046.inp" -scrdir="/tmp/"
 Entering Link 1 = /share/home/dongh_N/wxy/software/g16/l1.exe PID=    120047.
  
 Copyright (c) 1988,1990,1992,1993,1995,1998,2003,2009,2016,
            Gaussian, Inc.  All Rights Reserved.
  
 This is part of the Gaussian(R) 16 program.  It is based on
 the Gaussian(R) 09 system (copyright 2009, Gaussian, Inc.),
 the Gaussian(R) 03 system (copyright 2003, Gaussian, Inc.),
 the Gaussian(R) 98 system (copyright 1998, Gaussian, Inc.),
 the Gaussian(R) 94 system (copyright 1995, Gaussian, Inc.),
 the Gaussian 92(TM) system (copyright 1992, Gaussian, Inc.),
 the Gaussian 90(TM) system (copyright 1990, Gaussian, Inc.),
 the Gaussian 88(TM) system (copyright 1988, Gaussian, Inc.),
 the Gaussian 86(TM) system (copyright 1986, Carnegie Mellon
 University), and the Gaussian 82(TM) system (copyright 1983,
 Carnegie Mellon University). Gaussian is a federally registered
 trademark of Gaussian, Inc.
  
 This software contains proprietary and confidential information,
 including trade secrets, belonging to Gaussian, Inc.
  
 This software is provided under written license and may be
 used, copied, transmitted, or stored only in accord with that
 written license.
  
 The following legend is applicable only to US Government
 contracts under FAR:
  
                    RESTRICTED RIGHTS LEGEND
  
 Use, reproduction and disclosure by the US Government is
 subject to restrictions as set forth in subparagraphs (a)
 and (c) of the Commercial Computer Software - Restricted
 Rights clause in FAR 52.227-19.
  
 Gaussian, Inc.
 340 Quinnipiac St., Bldg. 40, Wallingford CT 06492
  
  
 ---------------------------------------------------------------
 Warning -- This program may not be used in any manner that
 competes with the business of Gaussian, Inc. or will provide
 assistance to any competitor of Gaussian, Inc.  The licensee
 of this program is prohibited from giving any competitor of
 Gaussian, Inc. access to this program.  By using this program,
 the user acknowledges that Gaussian, Inc. is engaged in the
 business of creating and licensing software in the field of
 computational chemistry and represents and warrants to the
 licensee that it is not a competitor of Gaussian, Inc. and that
 it will not use this program in any manner prohibited above.
 ---------------------------------------------------------------
  

 Cite this work as:
 Gaussian 16, Revision A.03,
 M. J. Frisch, G. W. Trucks, H. B. Schlegel, G. E. Scuseria, 
 M. A. Robb, J. R. Cheeseman, G. Scalmani, V. Barone, 
 G. A. Petersson, H. Nakatsuji, X. Li, M. Caricato, A. V. Marenich, 
 J. Bloino, B. G. Janesko, R. Gomperts, B. Mennucci, H. P. Hratchian, 
 J. V. Ortiz, A. F. Izmaylov, J. L. Sonnenberg, D. Williams-Young, 
 F. Ding, F. Lipparini, F. Egidi, J. Goings, B. Peng, A. Petrone, 
 T. Henderson, D. Ranasinghe, V. G. Zakrzewski, J. Gao, N. Rega, 
 G. Zheng, W. Liang, M. Hada, M. Ehara, K. Toyota, R. Fukuda, 
 J. Hasegawa, M. Ishida, T. Nakajima, Y. Honda, O. Kitao, H. Nakai, 
 T. Vreven, K. Throssell, J. A. Montgomery, Jr., J. E. Peralta, 
 F. Ogliaro, M. J. Bearpark, J. J. Heyd, E. N. Brothers, K. N. Kudin, 
 V. N. Staroverov, T. A. Keith, R. Kobayashi, J. Normand, 
 K. Raghavachari, A. P. Rendell, J. C. Burant, S. S. Iyengar, 
 J. Tomasi, M. Cossi, J. M. Millam, M. Klene, C. Adamo, R. Cammi, 
 J. W. Ochterski, R. L. Martin, K. Morokuma, O. Farkas, 
 J. B. Foresman, and D. J. Fox, Gaussian, Inc., Wallingford CT, 2016.
 
 ******************************************
 Gaussian 16:  ES64L-G16RevA.03 25-Dec-2016
                12-Aug-2024 
 ******************************************
 %chk=09_tsopt_sp_continue.chk
 %mem=64GB
 %nprocshared=80
 Will use up to   80 processors via shared memory.
 ----------------------------------------------------------------------
 # geom(allcheck) opt=(ts,modredundant,noeigen,recalc=6,maxstep=3,notru
 st,gdiis) freq genecp scrf m062x
 ----------------------------------------------------------------------

 Warning!  Use of Opt=GDIIS is deprecated since it is seldom a good choice.

 1/5=1,8=3,9=1,10=4,11=1,18=120,19=11,26=3,29=7,38=1,71=6/1,3;
 2/9=110,12=2,40=1/2;
 3/5=7,11=2,14=-4,16=1,17=8,25=1,30=1,70=2201,71=2,74=-55,140=1/1,2,3;
 4//1;
 5/5=2,38=5/2;
 8/6=4,10=90,11=11/1;
 11/6=1,8=1,9=11,15=111,16=1/1,2,10;
 10/6=1/2;
 6/7=2,8=2,9=2,10=2,28=1/1;
 7/10=1,25=1/1,2,3,16;
 1/5=1,8=3,9=1,10=4,11=1,18=20,19=11,26=3,71=6/3(3);
 2/9=110/2;
 7/9=1,25=1,44=-1/16;
 99//99;
 2/9=110/2;
 3/5=7,6=1,11=2,14=-2,16=1,17=8,25=1,30=1,70=2205,71=2,74=-55,82=7,140=1/1,2,3;
 4/5=5,16=3,69=1/1;
 5/5=2,38=5/2;
 8/6=4,10=90,11=11/1;
 11/6=1,8=1,9=11,15=111,16=1/1,2,10;
 10/6=1/2;
 7/10=1,25=1/1,2,3,16;
 1/5=1,8=3,9=1,11=1,18=20,19=11,26=3,71=6/3(-8);
 2/9=110/2;
 6/7=2,8=2,9=2,10=2,19=2,28=1/1;
 7/9=1,25=1,44=-1/16;
 99/9=1/99;
 Structure from the checkpoint file:  "09_tsopt_sp_continue.chk"
 -------------------
 Title Card Required
 -------------------
 Charge =  1 Multiplicity = 1
 Redundant internal coordinates found in file.  (old form).
 C,0,3.2839967743,5.2417627496,0.600705589
 H,0,4.0139452696,5.4723120664,1.3758038292
 C,0,2.6509767472,3.8728318733,0.851936228
 H,0,2.1669236648,3.8630799421,1.8333422808
 H,0,3.4240727018,3.1026426112,0.8948403386
 N,0,1.3330698335,2.1790520574,-0.4792711328
 C,0,1.6460555832,3.4920585589,-0.1896810386
 C,0,0.3834815582,2.207474959,-1.3999655132
 H,0,-0.0892775372,1.3335562495,-1.8217086791
 N,0,0.0737281422,3.4670837928,-1.7214812264
 H,0,-0.6473876845,3.7129389463,-2.4103899928
 C,0,0.8643695929,4.2996930501,-0.9694319941
 H,0,0.8033147868,5.3703614325,-1.0505345855
 C,0,-2.4716906323,2.4086850477,2.450873698
 H,0,-2.22742185,3.1820300137,3.1812462215
 C,0,-1.2060816523,1.8824974096,1.7664730029
 H,0,-0.7163237385,2.6934929575,1.2184929497
 H,0,-1.4663388226,1.1186239608,1.0252971554
 N,0,0.9369706042,0.6362133249,2.3327471553
 C,0,-0.2279047298,1.2798638037,2.7265191898
 C,0,1.5316648939,0.2079738388,3.430529395
 H,0,2.4517021862,-0.3515883431,3.4691091787
 N,0,0.8164891265,0.5464364848,4.5101006295
 H,0,1.0581148113,0.3319821964,5.4659635346
 C,0,-0.3029479487,1.2243983629,4.0872600591
 H,0,-1.0401542595,1.5938757987,4.7770524677
 C,0,3.8881517301,-3.6216592162,0.3628610746
 H,0,4.9476192906,-3.8439962409,0.2598564807
 C,0,3.3913013714,-2.7525960451,-0.8099681351
 H,0,2.3248682541,-2.5450336847,-0.7026786503
 H,0,3.5176602427,-3.3227212859,-1.7310458261
 N,0,3.6130286561,-0.2470088422,-0.4561200853
 C,0,4.1118927412,-1.4476387229,-0.9373394624
 C,0,4.497315367,0.6828568208,-0.7669136192
 H,0,4.4096855124,1.7358520598,-0.5599371782
 N,0,5.5379658705,0.1421057257,-1.4125280104
 H,0,6.3397107198,0.6478073597,-1.7600778482
 C,0,5.3143937346,-1.2050208079,-1.5337702004
 H,0,6.0073012654,-1.8613327884,-2.0297503616
 C,0,3.6817027347,-2.8801949086,1.6638860542
 O,0,4.5812442146,-2.4640812932,2.3532644573
 O,0,2.4163099042,-2.6445708434,2.0152580498
 Zn,0,1.7321597157,0.2791425278,0.3986114458
 O,0,-1.5177587592,-1.8732163276,1.444360518
 H,0,-2.3915187933,-2.1023540104,1.1073296568
 H,0,-0.9644091348,-2.6552412392,1.2776199338
 O,0,0.41737459,-0.8400734587,-0.5581533118
 H,0,-0.3321987067,-1.0513291773,0.0198202193
 H,0,0.3039033419,-3.4417997619,-0.3965657911
 O,0,0.4297186648,-3.7238374765,0.5366531458
 H,0,1.7519678641,-3.0511200776,1.405398746
 H,0,0.3269271712,-4.6822995688,0.5529934706
 H,0,3.7875043851,5.2633685982,-0.3665192538
 H,0,2.5288165538,6.0289318523,0.6087544357
 H,0,-3.1528267438,2.8313750564,1.7145824243
 H,0,-2.9974780702,1.6031669172,2.967751297
 H,0,3.3229732131,-4.5555890058,0.3814058798
 C,0,-2.2585768065,-1.1863121997,-1.8277927592
 C,0,-2.8688479285,-2.4340192426,-1.6868236822
 C,0,-3.9958567908,-2.5379799332,-0.8941879514
 C,0,-4.5392395665,-1.421458811,-0.2435961544
 C,0,-3.9172033588,-0.1864330681,-0.4415612091
 C,0,-2.7806798132,-0.057613364,-1.223700455
 H,0,-2.4567322964,-3.2961323483,-2.1864433589
 H,0,-4.4702217796,-3.5031469074,-0.776038059
 H,0,-2.313771517,0.9103531845,-1.3472462478
 O,0,-1.1349140978,-0.9923858445,-2.5996070095
 C,0,0.0258327019,-1.7417208877,-2.3355162453
 O,0,-0.0573188927,-2.9164244212,-2.0257296765
 C,0,1.1723889215,-1.1384247182,-3.0888365541
 H,0,2.0971456087,-1.6105875203,-2.7722560906
 H,0,1.0175727439,-1.3432293037,-4.150824712
 H,0,1.232638792,-0.064373243,-2.9378238111
 C,0,-5.495197182,0.9542516385,0.9456990392
 C,0,-6.1467911003,-0.3226545692,1.1736445376
 H,0,-7.0121266304,-0.2931336665,1.8208166699
 C,0,-5.7124006387,-1.4686566319,0.6147653421
 C,0,-6.4003014376,-2.7742170192,0.856142743
 H,0,-6.7531528547,-3.1990424262,-0.0855746168
 H,0,-5.7092612348,-3.4924623565,1.3015980907
 H,0,-7.2499524052,-2.6454193707,1.5222480254
 O,0,-5.8449722145,2.0143990931,1.4014045301
 O,0,-4.3883344436,0.9524681791,0.1377489702
 O,0,-1.9143729708,3.4856161722,-3.6767521693
 H,0,-1.7617230792,2.5999537215,-4.0640476336
 H,0,-2.8465002652,3.5222198705,-3.4420426208
 O,0,-1.1764899281,1.0204909113,-4.6007586804
 H,0,-1.3785958417,0.67957856,-5.4778157129
 H,0,-1.2032699689,0.2594100041,-3.9992534031
 Recover connectivity data from disk.
 The following ModRedundant input section has been read:
 X      27 F                                                                   
 X       1 F                                                                   
 X      14 F                                                                   
 B      47      68 B                                                           
 In this task builder options are not available,
 so the previous line wont be used.
 

 GradGradGradGradGradGradGradGradGradGradGradGradGradGradGradGradGradGrad
 Berny optimization.
 Initialization pass.
                           ----------------------------
                           !    Initial Parameters    !
                           ! (Angstroms and Degrees)  !
 --------------------------                            --------------------------
 ! Name  Definition              Value          Derivative Info.                !
 --------------------------------------------------------------------------------
 ! X1    R(1,-1)                 3.284          frozen, calculate D2E/DX2 analyt!
 ! Y1    R(1,-2)                 5.2418         frozen, calculate D2E/DX2 analyt!
 ! Z1    R(1,-3)                 0.6007         frozen, calculate D2E/DX2 analyt!
 ! X14   R(14,-1)               -2.4717         frozen, calculate D2E/DX2 analyt!
 ! Y14   R(14,-2)                2.4087         frozen, calculate D2E/DX2 analyt!
 ! Z14   R(14,-3)                2.4509         frozen, calculate D2E/DX2 analyt!
 ! X27   R(27,-1)                3.8882         frozen, calculate D2E/DX2 analyt!
 ! Y27   R(27,-2)               -3.6217         frozen, calculate D2E/DX2 analyt!
 ! Z27   R(27,-3)                0.3629         frozen, calculate D2E/DX2 analyt!
 ! R1    R(1,2)                  1.0894         calculate D2E/DX2 analytically  !
 ! R2    R(1,3)                  1.529          calculate D2E/DX2 analytically  !
 ! R3    R(1,53)                 1.0906         calculate D2E/DX2 analytically  !
 ! R4    R(1,54)                 1.0909         calculate D2E/DX2 analytically  !
 ! R5    R(3,4)                  1.0943         calculate D2E/DX2 analytically  !
 ! R6    R(3,5)                  1.0921         calculate D2E/DX2 analytically  !
 ! R7    R(3,7)                  1.4966         calculate D2E/DX2 analytically  !
 ! R8    R(6,7)                  1.3805         calculate D2E/DX2 analytically  !
 ! R9    R(6,8)                  1.323          calculate D2E/DX2 analytically  !
 ! R10   R(6,43)                 2.1306         calculate D2E/DX2 analytically  !
 ! R11   R(7,12)                 1.368          calculate D2E/DX2 analytically  !
 ! R12   R(8,9)                  1.0794         calculate D2E/DX2 analytically  !
 ! R13   R(8,10)                 1.3364         calculate D2E/DX2 analytically  !
 ! R14   R(10,11)                1.0272         calculate D2E/DX2 analytically  !
 ! R15   R(10,12)                1.3726         calculate D2E/DX2 analytically  !
 ! R16   R(11,84)                1.8057         calculate D2E/DX2 analytically  !
 ! R17   R(12,13)                1.0755         calculate D2E/DX2 analytically  !
 ! R18   R(14,15)                1.0914         calculate D2E/DX2 analytically  !
 ! R19   R(14,16)                1.532          calculate D2E/DX2 analytically  !
 ! R20   R(14,55)                1.0885         calculate D2E/DX2 analytically  !
 ! R21   R(14,56)                1.092          calculate D2E/DX2 analytically  !
 ! R22   R(16,17)                1.0945         calculate D2E/DX2 analytically  !
 ! R23   R(16,18)                1.0957         calculate D2E/DX2 analytically  !
 ! R24   R(16,20)                1.4972         calculate D2E/DX2 analytically  !
 ! R25   R(19,20)                1.3879         calculate D2E/DX2 analytically  !
 ! R26   R(19,21)                1.3199         calculate D2E/DX2 analytically  !
 ! R27   R(19,43)                2.1215         calculate D2E/DX2 analytically  !
 ! R28   R(20,25)                1.3639         calculate D2E/DX2 analytically  !
 ! R29   R(21,22)                1.0775         calculate D2E/DX2 analytically  !
 ! R30   R(21,23)                1.3385         calculate D2E/DX2 analytically  !
 ! R31   R(23,24)                1.009          calculate D2E/DX2 analytically  !
 ! R32   R(23,25)                1.3753         calculate D2E/DX2 analytically  !
 ! R33   R(25,26)                1.0751         calculate D2E/DX2 analytically  !
 ! R34   R(27,28)                1.0874         calculate D2E/DX2 analytically  !
 ! R35   R(27,29)                1.542          calculate D2E/DX2 analytically  !
 ! R36   R(27,40)                1.5116         calculate D2E/DX2 analytically  !
 ! R37   R(27,57)                1.0918         calculate D2E/DX2 analytically  !
 ! R38   R(29,30)                1.0917         calculate D2E/DX2 analytically  !
 ! R39   R(29,31)                1.0906         calculate D2E/DX2 analytically  !
 ! R40   R(29,33)                1.4961         calculate D2E/DX2 analytically  !
 ! R41   R(32,33)                1.3863         calculate D2E/DX2 analytically  !
 ! R42   R(32,34)                1.3203         calculate D2E/DX2 analytically  !
 ! R43   R(32,43)                2.1319         calculate D2E/DX2 analytically  !
 ! R44   R(33,38)                1.364          calculate D2E/DX2 analytically  !
 ! R45   R(34,35)                1.0767         calculate D2E/DX2 analytically  !
 ! R46   R(34,36)                1.3387         calculate D2E/DX2 analytically  !
 ! R47   R(36,37)                1.0096         calculate D2E/DX2 analytically  !
 ! R48   R(36,38)                1.3709         calculate D2E/DX2 analytically  !
 ! R49   R(38,39)                1.0756         calculate D2E/DX2 analytically  !
 ! R50   R(40,41)                1.2073         calculate D2E/DX2 analytically  !
 ! R51   R(40,42)                1.3342         calculate D2E/DX2 analytically  !
 ! R52   R(42,51)                0.9892         calculate D2E/DX2 analytically  !
 ! R53   R(43,47)                1.974          calculate D2E/DX2 analytically  !
 ! R54   R(44,45)                0.9641         calculate D2E/DX2 analytically  !
 ! R55   R(44,46)                0.9724         calculate D2E/DX2 analytically  !
 ! R56   R(44,48)                2.0274         calculate D2E/DX2 analytically  !
 ! R57   R(46,50)                1.9064         calculate D2E/DX2 analytically  !
 ! R58   R(47,48)                0.9698         calculate D2E/DX2 analytically  !
 ! R59   R(47,68)                2.0311         calculate D2E/DX2 analytically  !
 ! R60   R(49,50)                0.983          calculate D2E/DX2 analytically  !
 ! R61   R(49,69)                1.7495         calculate D2E/DX2 analytically  !
 ! R62   R(50,51)                1.7192         calculate D2E/DX2 analytically  !
 ! R63   R(50,52)                0.9641         calculate D2E/DX2 analytically  !
 ! R64   R(58,59)                1.3961         calculate D2E/DX2 analytically  !
 ! R65   R(58,63)                1.3826         calculate D2E/DX2 analytically  !
 ! R66   R(58,67)                1.3769         calculate D2E/DX2 analytically  !
 ! R67   R(59,60)                1.3817         calculate D2E/DX2 analytically  !
 ! R68   R(59,64)                1.0783         calculate D2E/DX2 analytically  !
 ! R69   R(60,61)                1.4018         calculate D2E/DX2 analytically  !
 ! R70   R(60,65)                1.0819         calculate D2E/DX2 analytically  !
 ! R71   R(61,62)                1.3969         calculate D2E/DX2 analytically  !
 ! R72   R(61,77)                1.4544         calculate D2E/DX2 analytically  !
 ! R73   R(62,63)                1.3856         calculate D2E/DX2 analytically  !
 ! R74   R(62,83)                1.3619         calculate D2E/DX2 analytically  !
 ! R75   R(63,66)                1.0818         calculate D2E/DX2 analytically  !
 ! R76   R(67,68)                1.4066         calculate D2E/DX2 analytically  !
 ! R77   R(67,89)                1.879          calculate D2E/DX2 analytically  !
 ! R78   R(68,69)                1.2177         calculate D2E/DX2 analytically  !
 ! R79   R(68,70)                1.4987         calculate D2E/DX2 analytically  !
 ! R80   R(70,71)                1.0855         calculate D2E/DX2 analytically  !
 ! R81   R(70,72)                1.0926         calculate D2E/DX2 analytically  !
 ! R82   R(70,73)                1.0863         calculate D2E/DX2 analytically  !
 ! R83   R(74,75)                1.4516         calculate D2E/DX2 analytically  !
 ! R84   R(74,82)                1.2058         calculate D2E/DX2 analytically  !
 ! R85   R(74,83)                1.3704         calculate D2E/DX2 analytically  !
 ! R86   R(75,76)                1.081          calculate D2E/DX2 analytically  !
 ! R87   R(75,77)                1.347          calculate D2E/DX2 analytically  !
 ! R88   R(77,78)                1.4953         calculate D2E/DX2 analytically  !
 ! R89   R(78,79)                1.0917         calculate D2E/DX2 analytically  !
 ! R90   R(78,80)                1.0917         calculate D2E/DX2 analytically  !
 ! R91   R(78,81)                1.0873         calculate D2E/DX2 analytically  !
 ! R92   R(84,85)                0.9786         calculate D2E/DX2 analytically  !
 ! R93   R(84,86)                0.9619         calculate D2E/DX2 analytically  !
 ! R94   R(85,87)                1.7678         calculate D2E/DX2 analytically  !
 ! R95   R(87,88)                0.9624         calculate D2E/DX2 analytically  !
 ! R96   R(87,89)                0.9704         calculate D2E/DX2 analytically  !
 ! A1    A(2,1,3)              110.4863         calculate D2E/DX2 analytically  !
 ! A2    A(2,1,53)             108.5091         calculate D2E/DX2 analytically  !
 ! A3    A(2,1,54)             107.8123         calculate D2E/DX2 analytically  !
 ! A4    A(3,1,53)             110.7681         calculate D2E/DX2 analytically  !
 ! A5    A(3,1,54)             110.992          calculate D2E/DX2 analytically  !
 ! A6    A(53,1,54)            108.1703         calculate D2E/DX2 analytically  !
 ! A7    A(1,3,4)              109.7833         calculate D2E/DX2 analytically  !
 ! A8    A(1,3,5)              110.1686         calculate D2E/DX2 analytically  !
 ! A9    A(1,3,7)              113.0434         calculate D2E/DX2 analytically  !
 ! A10   A(4,3,5)              105.7597         calculate D2E/DX2 analytically  !
 ! A11   A(4,3,7)              108.959          calculate D2E/DX2 analytically  !
 ! A12   A(5,3,7)              108.859          calculate D2E/DX2 analytically  !
 ! A13   A(7,6,8)              106.7554         calculate D2E/DX2 analytically  !
 ! A14   A(7,6,43)             135.9893         calculate D2E/DX2 analytically  !
 ! A15   A(8,6,43)             116.1263         calculate D2E/DX2 analytically  !
 ! A16   A(3,7,6)              122.6983         calculate D2E/DX2 analytically  !
 ! A17   A(3,7,12)             129.065          calculate D2E/DX2 analytically  !
 ! A18   A(6,7,12)             108.204          calculate D2E/DX2 analytically  !
 ! A19   A(6,8,9)              124.6735         calculate D2E/DX2 analytically  !
 ! A20   A(6,8,10)             110.7354         calculate D2E/DX2 analytically  !
 ! A21   A(9,8,10)             124.583          calculate D2E/DX2 analytically  !
 ! A22   A(8,10,11)            123.3456         calculate D2E/DX2 analytically  !
 ! A23   A(8,10,12)            107.8437         calculate D2E/DX2 analytically  !
 ! A24   A(11,10,12)           128.8067         calculate D2E/DX2 analytically  !
 ! A25   A(10,11,84)           158.8802         calculate D2E/DX2 analytically  !
 ! A26   A(7,12,10)            106.4596         calculate D2E/DX2 analytically  !
 ! A27   A(7,12,13)            131.543          calculate D2E/DX2 analytically  !
 ! A28   A(10,12,13)           121.9973         calculate D2E/DX2 analytically  !
 ! A29   A(15,14,16)           110.9426         calculate D2E/DX2 analytically  !
 ! A30   A(15,14,55)           108.5162         calculate D2E/DX2 analytically  !
 ! A31   A(15,14,56)           108.2818         calculate D2E/DX2 analytically  !
 ! A32   A(16,14,55)           110.3742         calculate D2E/DX2 analytically  !
 ! A33   A(16,14,56)           110.8462         calculate D2E/DX2 analytically  !
 ! A34   A(55,14,56)           107.7785         calculate D2E/DX2 analytically  !
 ! A35   A(14,16,17)           109.8062         calculate D2E/DX2 analytically  !
 ! A36   A(14,16,18)           110.2069         calculate D2E/DX2 analytically  !
 ! A37   A(14,16,20)           113.0485         calculate D2E/DX2 analytically  !
 ! A38   A(17,16,18)           106.5107         calculate D2E/DX2 analytically  !
 ! A39   A(17,16,20)           109.0833         calculate D2E/DX2 analytically  !
 ! A40   A(18,16,20)           107.958          calculate D2E/DX2 analytically  !
 ! A41   A(20,19,21)           107.0165         calculate D2E/DX2 analytically  !
 ! A42   A(20,19,43)           130.6405         calculate D2E/DX2 analytically  !
 ! A43   A(21,19,43)           122.3283         calculate D2E/DX2 analytically  !
 ! A44   A(16,20,19)           123.5785         calculate D2E/DX2 analytically  !
 ! A45   A(16,20,25)           128.3261         calculate D2E/DX2 analytically  !
 ! A46   A(19,20,25)           108.0816         calculate D2E/DX2 analytically  !
 ! A47   A(19,21,22)           125.6594         calculate D2E/DX2 analytically  !
 ! A48   A(19,21,23)           110.3678         calculate D2E/DX2 analytically  !
 ! A49   A(22,21,23)           123.9635         calculate D2E/DX2 analytically  !
 ! A50   A(21,23,24)           125.6197         calculate D2E/DX2 analytically  !
 ! A51   A(21,23,25)           108.1544         calculate D2E/DX2 analytically  !
 ! A52   A(24,23,25)           126.2242         calculate D2E/DX2 analytically  !
 ! A53   A(20,25,23)           106.3788         calculate D2E/DX2 analytically  !
 ! A54   A(20,25,26)           131.5955         calculate D2E/DX2 analytically  !
 ! A55   A(23,25,26)           122.0244         calculate D2E/DX2 analytically  !
 ! A56   A(28,27,29)           110.9234         calculate D2E/DX2 analytically  !
 ! A57   A(28,27,40)           108.3532         calculate D2E/DX2 analytically  !
 ! A58   A(28,27,57)           109.3332         calculate D2E/DX2 analytically  !
 ! A59   A(29,27,40)           109.5223         calculate D2E/DX2 analytically  !
 ! A60   A(29,27,57)           109.1618         calculate D2E/DX2 analytically  !
 ! A61   A(40,27,57)           109.5279         calculate D2E/DX2 analytically  !
 ! A62   A(27,29,30)           110.3136         calculate D2E/DX2 analytically  !
 ! A63   A(27,29,31)           108.0842         calculate D2E/DX2 analytically  !
 ! A64   A(27,29,33)           113.6503         calculate D2E/DX2 analytically  !
 ! A65   A(30,29,31)           107.1915         calculate D2E/DX2 analytically  !
 ! A66   A(30,29,33)           108.2411         calculate D2E/DX2 analytically  !
 ! A67   A(31,29,33)           109.1635         calculate D2E/DX2 analytically  !
 ! A68   A(33,32,34)           106.6916         calculate D2E/DX2 analytically  !
 ! A69   A(33,32,43)           132.0956         calculate D2E/DX2 analytically  !
 ! A70   A(34,32,43)           120.7605         calculate D2E/DX2 analytically  !
 ! A71   A(29,33,32)           123.5399         calculate D2E/DX2 analytically  !
 ! A72   A(29,33,38)           128.0949         calculate D2E/DX2 analytically  !
 ! A73   A(32,33,38)           108.3586         calculate D2E/DX2 analytically  !
 ! A74   A(32,34,35)           126.0865         calculate D2E/DX2 analytically  !
 ! A75   A(32,34,36)           110.4675         calculate D2E/DX2 analytically  !
 ! A76   A(35,34,36)           123.4357         calculate D2E/DX2 analytically  !
 ! A77   A(34,36,37)           125.5201         calculate D2E/DX2 analytically  !
 ! A78   A(34,36,38)           108.2279         calculate D2E/DX2 analytically  !
 ! A79   A(37,36,38)           126.2459         calculate D2E/DX2 analytically  !
 ! A80   A(33,38,36)           106.2529         calculate D2E/DX2 analytically  !
 ! A81   A(33,38,39)           131.3781         calculate D2E/DX2 analytically  !
 ! A82   A(36,38,39)           122.366          calculate D2E/DX2 analytically  !
 ! A83   A(27,40,41)           123.9695         calculate D2E/DX2 analytically  !
 ! A84   A(27,40,42)           116.283          calculate D2E/DX2 analytically  !
 ! A85   A(41,40,42)           119.6959         calculate D2E/DX2 analytically  !
 ! A86   A(40,42,51)           113.7028         calculate D2E/DX2 analytically  !
 ! A87   A(6,43,19)             98.937          calculate D2E/DX2 analytically  !
 ! A88   A(6,43,32)            102.7169         calculate D2E/DX2 analytically  !
 ! A89   A(6,43,47)            100.4349         calculate D2E/DX2 analytically  !
 ! A90   A(19,43,32)           137.5395         calculate D2E/DX2 analytically  !
 ! A91   A(19,43,47)           106.7176         calculate D2E/DX2 analytically  !
 ! A92   A(32,43,47)           104.677          calculate D2E/DX2 analytically  !
 ! A93   A(45,44,46)           105.3456         calculate D2E/DX2 analytically  !
 ! A94   A(45,44,48)           112.3757         calculate D2E/DX2 analytically  !
 ! A95   A(46,44,48)            82.6906         calculate D2E/DX2 analytically  !
 ! A96   A(44,46,50)           158.9969         calculate D2E/DX2 analytically  !
 ! A97   A(43,47,48)           110.4533         calculate D2E/DX2 analytically  !
 ! A98   A(43,47,68)           143.5358         calculate D2E/DX2 analytically  !
 ! A99   A(48,47,68)           106.0108         calculate D2E/DX2 analytically  !
 ! A100  A(44,48,47)           163.5411         calculate D2E/DX2 analytically  !
 ! A101  A(46,50,49)            96.5785         calculate D2E/DX2 analytically  !
 ! A102  A(46,50,51)            98.4356         calculate D2E/DX2 analytically  !
 ! A103  A(46,50,52)           118.2089         calculate D2E/DX2 analytically  !
 ! A104  A(49,50,51)           117.7689         calculate D2E/DX2 analytically  !
 ! A105  A(49,50,52)           106.7194         calculate D2E/DX2 analytically  !
 ! A106  A(51,50,52)           117.5453         calculate D2E/DX2 analytically  !
 ! A107  A(59,58,63)           121.3603         calculate D2E/DX2 analytically  !
 ! A108  A(59,58,67)           122.6289         calculate D2E/DX2 analytically  !
 ! A109  A(63,58,67)           115.9836         calculate D2E/DX2 analytically  !
 ! A110  A(58,59,60)           118.7967         calculate D2E/DX2 analytically  !
 ! A111  A(58,59,64)           120.0456         calculate D2E/DX2 analytically  !
 ! A112  A(60,59,64)           121.1564         calculate D2E/DX2 analytically  !
 ! A113  A(59,60,61)           121.4976         calculate D2E/DX2 analytically  !
 ! A114  A(59,60,65)           119.1688         calculate D2E/DX2 analytically  !
 ! A115  A(61,60,65)           119.3334         calculate D2E/DX2 analytically  !
 ! A116  A(60,61,62)           117.7611         calculate D2E/DX2 analytically  !
 ! A117  A(60,61,77)           124.1054         calculate D2E/DX2 analytically  !
 ! A118  A(62,61,77)           118.1321         calculate D2E/DX2 analytically  !
 ! A119  A(61,62,63)           121.8309         calculate D2E/DX2 analytically  !
 ! A120  A(61,62,83)           121.6703         calculate D2E/DX2 analytically  !
 ! A121  A(63,62,83)           116.4945         calculate D2E/DX2 analytically  !
 ! A122  A(58,63,62)           118.7164         calculate D2E/DX2 analytically  !
 ! A123  A(58,63,66)           121.1716         calculate D2E/DX2 analytically  !
 ! A124  A(62,63,66)           120.1104         calculate D2E/DX2 analytically  !
 ! A125  A(58,67,68)           119.548          calculate D2E/DX2 analytically  !
 ! A126  A(58,67,89)           118.7948         calculate D2E/DX2 analytically  !
 ! A127  A(68,67,89)           121.6527         calculate D2E/DX2 analytically  !
 ! A128  A(47,68,67)            94.9845         calculate D2E/DX2 analytically  !
 ! A129  A(47,68,69)           102.6379         calculate D2E/DX2 analytically  !
 ! A130  A(47,68,70)            96.5275         calculate D2E/DX2 analytically  !
 ! A131  A(67,68,69)           120.3527         calculate D2E/DX2 analytically  !
 ! A132  A(67,68,70)           108.8139         calculate D2E/DX2 analytically  !
 ! A133  A(69,68,70)           124.6424         calculate D2E/DX2 analytically  !
 ! A134  A(49,69,68)           120.8309         calculate D2E/DX2 analytically  !
 ! A135  A(68,70,71)           109.2721         calculate D2E/DX2 analytically  !
 ! A136  A(68,70,72)           107.7412         calculate D2E/DX2 analytically  !
 ! A137  A(68,70,73)           111.7508         calculate D2E/DX2 analytically  !
 ! A138  A(71,70,72)           108.8235         calculate D2E/DX2 analytically  !
 ! A139  A(71,70,73)           110.0155         calculate D2E/DX2 analytically  !
 ! A140  A(72,70,73)           109.167          calculate D2E/DX2 analytically  !
 ! A141  A(75,74,82)           125.7228         calculate D2E/DX2 analytically  !
 ! A142  A(75,74,83)           117.0015         calculate D2E/DX2 analytically  !
 ! A143  A(82,74,83)           117.2753         calculate D2E/DX2 analytically  !
 ! A144  A(74,75,76)           115.4255         calculate D2E/DX2 analytically  !
 ! A145  A(74,75,77)           122.5819         calculate D2E/DX2 analytically  !
 ! A146  A(76,75,77)           121.9918         calculate D2E/DX2 analytically  !
 ! A147  A(61,77,75)           118.5151         calculate D2E/DX2 analytically  !
 ! A148  A(61,77,78)           119.6485         calculate D2E/DX2 analytically  !
 ! A149  A(75,77,78)           121.8363         calculate D2E/DX2 analytically  !
 ! A150  A(77,78,79)           110.4386         calculate D2E/DX2 analytically  !
 ! A151  A(77,78,80)           110.4315         calculate D2E/DX2 analytically  !
 ! A152  A(77,78,81)           110.791          calculate D2E/DX2 analytically  !
 ! A153  A(79,78,80)           107.4904         calculate D2E/DX2 analytically  !
 ! A154  A(79,78,81)           108.7833         calculate D2E/DX2 analytically  !
 ! A155  A(80,78,81)           108.8204         calculate D2E/DX2 analytically  !
 ! A156  A(62,83,74)           122.094          calculate D2E/DX2 analytically  !
 ! A157  A(11,84,85)           106.3816         calculate D2E/DX2 analytically  !
 ! A158  A(11,84,86)           120.2658         calculate D2E/DX2 analytically  !
 ! A159  A(85,84,86)           106.389          calculate D2E/DX2 analytically  !
 ! A160  A(85,87,88)           121.5752         calculate D2E/DX2 analytically  !
 ! A161  A(85,87,89)           120.2237         calculate D2E/DX2 analytically  !
 ! A162  A(88,87,89)           106.3343         calculate D2E/DX2 analytically  !
 ! A163  L(50,49,69,1,-1)      180.6222         calculate D2E/DX2 analytically  !
 ! A164  L(42,51,50,6,-1)      180.6818         calculate D2E/DX2 analytically  !
 ! A165  L(84,85,87,3,-1)      169.0219         calculate D2E/DX2 analytically  !
 ! A166  L(67,89,87,1,-1)      169.7492         calculate D2E/DX2 analytically  !
 ! A167  L(50,49,69,1,-2)      184.6724         calculate D2E/DX2 analytically  !
 ! A168  L(42,51,50,6,-2)      188.6055         calculate D2E/DX2 analytically  !
 ! A169  L(84,85,87,3,-2)      183.0895         calculate D2E/DX2 analytically  !
 ! A170  L(67,89,87,1,-2)      182.4085         calculate D2E/DX2 analytically  !
 ! D1    D(2,1,3,4)             58.6751         calculate D2E/DX2 analytically  !
 ! D2    D(2,1,3,5)            -57.4041         calculate D2E/DX2 analytically  !
 ! D3    D(2,1,3,7)           -179.4403         calculate D2E/DX2 analytically  !
 ! D4    D(53,1,3,4)           178.9481         calculate D2E/DX2 analytically  !
 ! D5    D(53,1,3,5)            62.869          calculate D2E/DX2 analytically  !
 ! D6    D(53,1,3,7)           -59.1672         calculate D2E/DX2 analytically  !
 ! D7    D(54,1,3,4)           -60.8709         calculate D2E/DX2 analytically  !
 ! D8    D(54,1,3,5)          -176.95           calculate D2E/DX2 analytically  !
 ! D9    D(54,1,3,7)            61.0138         calculate D2E/DX2 analytically  !
 ! D10   D(1,3,7,6)            154.5922         calculate D2E/DX2 analytically  !
 ! D11   D(1,3,7,12)           -27.742          calculate D2E/DX2 analytically  !
 ! D12   D(4,3,7,6)            -83.0614         calculate D2E/DX2 analytically  !
 ! D13   D(4,3,7,12)            94.6044         calculate D2E/DX2 analytically  !
 ! D14   D(5,3,7,6)             31.8247         calculate D2E/DX2 analytically  !
 ! D15   D(5,3,7,12)          -150.5095         calculate D2E/DX2 analytically  !
 ! D16   D(8,6,7,3)            177.661          calculate D2E/DX2 analytically  !
 ! D17   D(8,6,7,12)            -0.4313         calculate D2E/DX2 analytically  !
 ! D18   D(43,6,7,3)            10.871          calculate D2E/DX2 analytically  !
 ! D19   D(43,6,7,12)         -167.2213         calculate D2E/DX2 analytically  !
 ! D20   D(7,6,8,9)           -178.734          calculate D2E/DX2 analytically  !
 ! D21   D(7,6,8,10)             0.2657         calculate D2E/DX2 analytically  !
 ! D22   D(43,6,8,9)            -8.9199         calculate D2E/DX2 analytically  !
 ! D23   D(43,6,8,10)          170.0798         calculate D2E/DX2 analytically  !
 ! D24   D(7,6,43,19)           56.5752         calculate D2E/DX2 analytically  !
 ! D25   D(7,6,43,32)          -86.6579         calculate D2E/DX2 analytically  !
 ! D26   D(7,6,43,47)          165.5437         calculate D2E/DX2 analytically  !
 ! D27   D(8,6,43,19)         -109.3186         calculate D2E/DX2 analytically  !
 ! D28   D(8,6,43,32)          107.4483         calculate D2E/DX2 analytically  !
 ! D29   D(8,6,43,47)           -0.3501         calculate D2E/DX2 analytically  !
 ! D30   D(3,7,12,10)         -177.503          calculate D2E/DX2 analytically  !
 ! D31   D(3,7,12,13)            2.3859         calculate D2E/DX2 analytically  !
 ! D32   D(6,7,12,10)            0.4293         calculate D2E/DX2 analytically  !
 ! D33   D(6,7,12,13)         -179.6818         calculate D2E/DX2 analytically  !
 ! D34   D(6,8,10,11)         -179.3256         calculate D2E/DX2 analytically  !
 ! D35   D(6,8,10,12)            0.0008         calculate D2E/DX2 analytically  !
 ! D36   D(9,8,10,11)           -0.3248         calculate D2E/DX2 analytically  !
 ! D37   D(9,8,10,12)          179.0015         calculate D2E/DX2 analytically  !
 ! D38   D(8,10,11,84)          -4.5157         calculate D2E/DX2 analytically  !
 ! D39   D(12,10,11,84)        176.3072         calculate D2E/DX2 analytically  !
 ! D40   D(8,10,12,7)           -0.2689         calculate D2E/DX2 analytically  !
 ! D41   D(8,10,12,13)         179.8291         calculate D2E/DX2 analytically  !
 ! D42   D(11,10,12,7)         179.0089         calculate D2E/DX2 analytically  !
 ! D43   D(11,10,12,13)         -0.8931         calculate D2E/DX2 analytically  !
 ! D44   D(10,11,84,85)        -20.5074         calculate D2E/DX2 analytically  !
 ! D45   D(10,11,84,86)        100.2933         calculate D2E/DX2 analytically  !
 ! D46   D(15,14,16,17)        -62.0932         calculate D2E/DX2 analytically  !
 ! D47   D(15,14,16,18)       -179.1215         calculate D2E/DX2 analytically  !
 ! D48   D(15,14,16,20)         59.9716         calculate D2E/DX2 analytically  !
 ! D49   D(55,14,16,17)         58.2291         calculate D2E/DX2 analytically  !
 ! D50   D(55,14,16,18)        -58.7992         calculate D2E/DX2 analytically  !
 ! D51   D(55,14,16,20)       -179.7061         calculate D2E/DX2 analytically  !
 ! D52   D(56,14,16,17)        177.5663         calculate D2E/DX2 analytically  !
 ! D53   D(56,14,16,18)         60.5379         calculate D2E/DX2 analytically  !
 ! D54   D(56,14,16,20)        -60.3689         calculate D2E/DX2 analytically  !
 ! D55   D(14,16,20,19)        174.316          calculate D2E/DX2 analytically  !
 ! D56   D(14,16,20,25)         -4.1661         calculate D2E/DX2 analytically  !
 ! D57   D(17,16,20,19)        -63.215          calculate D2E/DX2 analytically  !
 ! D58   D(17,16,20,25)        118.3029         calculate D2E/DX2 analytically  !
 ! D59   D(18,16,20,19)         52.1415         calculate D2E/DX2 analytically  !
 ! D60   D(18,16,20,25)       -126.3406         calculate D2E/DX2 analytically  !
 ! D61   D(21,19,20,16)       -178.5369         calculate D2E/DX2 analytically  !
 ! D62   D(21,19,20,25)          0.2105         calculate D2E/DX2 analytically  !
 ! D63   D(43,19,20,16)          0.0658         calculate D2E/DX2 analytically  !
 ! D64   D(43,19,20,25)        178.8132         calculate D2E/DX2 analytically  !
 ! D65   D(20,19,21,22)        178.622          calculate D2E/DX2 analytically  !
 ! D66   D(20,19,21,23)         -0.2985         calculate D2E/DX2 analytically  !
 ! D67   D(43,19,21,22)         -0.1233         calculate D2E/DX2 analytically  !
 ! D68   D(43,19,21,23)       -179.0437         calculate D2E/DX2 analytically  !
 ! D69   D(20,19,43,6)          42.2316         calculate D2E/DX2 analytically  !
 ! D70   D(20,19,43,32)        162.3604         calculate D2E/DX2 analytically  !
 ! D71   D(20,19,43,47)        -61.5763         calculate D2E/DX2 analytically  !
 ! D72   D(21,19,43,6)        -139.3496         calculate D2E/DX2 analytically  !
 ! D73   D(21,19,43,32)        -19.2209         calculate D2E/DX2 analytically  !
 ! D74   D(21,19,43,47)        116.8425         calculate D2E/DX2 analytically  !
 ! D75   D(16,20,25,23)        178.6225         calculate D2E/DX2 analytically  !
 ! D76   D(16,20,25,26)         -0.9678         calculate D2E/DX2 analytically  !
 ! D77   D(19,20,25,23)         -0.0472         calculate D2E/DX2 analytically  !
 ! D78   D(19,20,25,26)       -179.6375         calculate D2E/DX2 analytically  !
 ! D79   D(19,21,23,24)        179.8222         calculate D2E/DX2 analytically  !
 ! D80   D(19,21,23,25)          0.2733         calculate D2E/DX2 analytically  !
 ! D81   D(22,21,23,24)          0.8797         calculate D2E/DX2 analytically  !
 ! D82   D(22,21,23,25)       -178.6691         calculate D2E/DX2 analytically  !
 ! D83   D(21,23,25,20)         -0.1318         calculate D2E/DX2 analytically  !
 ! D84   D(21,23,25,26)        179.5068         calculate D2E/DX2 analytically  !
 ! D85   D(24,23,25,20)       -179.6771         calculate D2E/DX2 analytically  !
 ! D86   D(24,23,25,26)         -0.0385         calculate D2E/DX2 analytically  !
 ! D87   D(28,27,29,30)        179.3539         calculate D2E/DX2 analytically  !
 ! D88   D(28,27,29,31)         62.4543         calculate D2E/DX2 analytically  !
 ! D89   D(28,27,29,33)        -58.8773         calculate D2E/DX2 analytically  !
 ! D90   D(40,27,29,30)        -61.0935         calculate D2E/DX2 analytically  !
 ! D91   D(40,27,29,31)       -177.993          calculate D2E/DX2 analytically  !
 ! D92   D(40,27,29,33)         60.6753         calculate D2E/DX2 analytically  !
 ! D93   D(57,27,29,30)         58.818          calculate D2E/DX2 analytically  !
 ! D94   D(57,27,29,31)        -58.0816         calculate D2E/DX2 analytically  !
 ! D95   D(57,27,29,33)       -179.4132         calculate D2E/DX2 analytically  !
 ! D96   D(28,27,40,41)          9.0723         calculate D2E/DX2 analytically  !
 ! D97   D(28,27,40,42)       -173.5549         calculate D2E/DX2 analytically  !
 ! D98   D(29,27,40,41)       -112.0477         calculate D2E/DX2 analytically  !
 ! D99   D(29,27,40,42)         65.3251         calculate D2E/DX2 analytically  !
 ! D100  D(57,27,40,41)        128.2652         calculate D2E/DX2 analytically  !
 ! D101  D(57,27,40,42)        -54.3619         calculate D2E/DX2 analytically  !
 ! D102  D(27,29,33,32)        -98.9207         calculate D2E/DX2 analytically  !
 ! D103  D(27,29,33,38)         82.1281         calculate D2E/DX2 analytically  !
 ! D104  D(30,29,33,32)         23.993          calculate D2E/DX2 analytically  !
 ! D105  D(30,29,33,38)       -154.9581         calculate D2E/DX2 analytically  !
 ! D106  D(31,29,33,32)        140.3523         calculate D2E/DX2 analytically  !
 ! D107  D(31,29,33,38)        -38.5989         calculate D2E/DX2 analytically  !
 ! D108  D(34,32,33,29)       -178.846          calculate D2E/DX2 analytically  !
 ! D109  D(34,32,33,38)          0.2844         calculate D2E/DX2 analytically  !
 ! D110  D(43,32,33,29)         -6.7589         calculate D2E/DX2 analytically  !
 ! D111  D(43,32,33,38)        172.3714         calculate D2E/DX2 analytically  !
 ! D112  D(33,32,34,35)        178.4608         calculate D2E/DX2 analytically  !
 ! D113  D(33,32,34,36)         -0.3989         calculate D2E/DX2 analytically  !
 ! D114  D(43,32,34,35)          5.2882         calculate D2E/DX2 analytically  !
 ! D115  D(43,32,34,36)       -173.5715         calculate D2E/DX2 analytically  !
 ! D116  D(33,32,43,6)        -139.3377         calculate D2E/DX2 analytically  !
 ! D117  D(33,32,43,19)        101.8122         calculate D2E/DX2 analytically  !
 ! D118  D(33,32,43,47)        -34.7985         calculate D2E/DX2 analytically  !
 ! D119  D(34,32,43,6)          31.8349         calculate D2E/DX2 analytically  !
 ! D120  D(34,32,43,19)        -87.0152         calculate D2E/DX2 analytically  !
 ! D121  D(34,32,43,47)        136.3741         calculate D2E/DX2 analytically  !
 ! D122  D(29,33,38,36)        179.0111         calculate D2E/DX2 analytically  !
 ! D123  D(29,33,38,39)         -0.347          calculate D2E/DX2 analytically  !
 ! D124  D(32,33,38,36)         -0.0678         calculate D2E/DX2 analytically  !
 ! D125  D(32,33,38,39)       -179.4259         calculate D2E/DX2 analytically  !
 ! D126  D(32,34,36,37)        179.5117         calculate D2E/DX2 analytically  !
 ! D127  D(32,34,36,38)          0.3641         calculate D2E/DX2 analytically  !
 ! D128  D(35,34,36,37)          0.616          calculate D2E/DX2 analytically  !
 ! D129  D(35,34,36,38)       -178.5317         calculate D2E/DX2 analytically  !
 ! D130  D(34,36,38,33)         -0.1722         calculate D2E/DX2 analytically  !
 ! D131  D(34,36,38,39)        179.2576         calculate D2E/DX2 analytically  !
 ! D132  D(37,36,38,33)       -179.312          calculate D2E/DX2 analytically  !
 ! D133  D(37,36,38,39)          0.1178         calculate D2E/DX2 analytically  !
 ! D134  D(27,40,42,51)          4.477          calculate D2E/DX2 analytically  !
 ! D135  D(41,40,42,51)       -178.0312         calculate D2E/DX2 analytically  !
 ! D136  D(40,42,50,46)       -166.1862         calculate D2E/DX2 analytically  !
 ! D137  D(40,42,50,49)        -65.1502         calculate D2E/DX2 analytically  !
 ! D138  D(40,42,50,52)         67.61           calculate D2E/DX2 analytically  !
 ! D139  D(6,43,47,48)        -104.5653         calculate D2E/DX2 analytically  !
 ! D140  D(6,43,47,68)          75.4867         calculate D2E/DX2 analytically  !
 ! D141  D(19,43,47,48)         -1.8419         calculate D2E/DX2 analytically  !
 ! D142  D(19,43,47,68)        178.2101         calculate D2E/DX2 analytically  !
 ! D143  D(32,43,47,48)        149.1971         calculate D2E/DX2 analytically  !
 ! D144  D(32,43,47,68)        -30.7509         calculate D2E/DX2 analytically  !
 ! D145  D(45,44,46,50)        115.0944         calculate D2E/DX2 analytically  !
 ! D146  D(48,44,46,50)          3.8229         calculate D2E/DX2 analytically  !
 ! D147  D(45,44,48,47)       -133.0407         calculate D2E/DX2 analytically  !
 ! D148  D(46,44,48,47)        -29.4061         calculate D2E/DX2 analytically  !
 ! D149  D(44,46,50,49)        -45.9095         calculate D2E/DX2 analytically  !
 ! D150  D(44,46,50,51)         73.5118         calculate D2E/DX2 analytically  !
 ! D151  D(44,46,50,52)       -158.894          calculate D2E/DX2 analytically  !
 ! D152  D(43,47,48,44)        -77.744          calculate D2E/DX2 analytically  !
 ! D153  D(68,47,48,44)        102.2238         calculate D2E/DX2 analytically  !
 ! D154  D(43,47,68,67)       -116.9905         calculate D2E/DX2 analytically  !
 ! D155  D(43,47,68,69)        120.3674         calculate D2E/DX2 analytically  !
 ! D156  D(43,47,68,70)         -7.3686         calculate D2E/DX2 analytically  !
 ! D157  D(48,47,68,67)         63.0602         calculate D2E/DX2 analytically  !
 ! D158  D(48,47,68,69)        -59.5819         calculate D2E/DX2 analytically  !
 ! D159  D(48,47,68,70)        172.6821         calculate D2E/DX2 analytically  !
 ! D160  D(46,50,69,68)         60.1179         calculate D2E/DX2 analytically  !
 ! D161  D(51,50,69,68)        -41.9185         calculate D2E/DX2 analytically  !
 ! D162  D(52,50,69,68)       -178.8107         calculate D2E/DX2 analytically  !
 ! D163  D(63,58,59,60)         -1.844          calculate D2E/DX2 analytically  !
 ! D164  D(63,58,59,64)        178.5458         calculate D2E/DX2 analytically  !
 ! D165  D(67,58,59,60)       -179.8677         calculate D2E/DX2 analytically  !
 ! D166  D(67,58,59,64)          0.5221         calculate D2E/DX2 analytically  !
 ! D167  D(59,58,63,62)          1.3961         calculate D2E/DX2 analytically  !
 ! D168  D(59,58,63,66)       -179.0619         calculate D2E/DX2 analytically  !
 ! D169  D(67,58,63,62)        179.5446         calculate D2E/DX2 analytically  !
 ! D170  D(67,58,63,66)         -0.9134         calculate D2E/DX2 analytically  !
 ! D171  D(59,58,67,68)        -56.8867         calculate D2E/DX2 analytically  !
 ! D172  D(59,58,67,89)        122.3561         calculate D2E/DX2 analytically  !
 ! D173  D(63,58,67,68)        124.9906         calculate D2E/DX2 analytically  !
 ! D174  D(63,58,67,89)        -55.7666         calculate D2E/DX2 analytically  !
 ! D175  D(58,59,60,61)          0.5263         calculate D2E/DX2 analytically  !
 ! D176  D(58,59,60,65)       -179.6415         calculate D2E/DX2 analytically  !
 ! D177  D(64,59,60,61)       -179.868          calculate D2E/DX2 analytically  !
 ! D178  D(64,59,60,65)         -0.0358         calculate D2E/DX2 analytically  !
 ! D179  D(59,60,61,62)          1.1601         calculate D2E/DX2 analytically  !
 ! D180  D(59,60,61,77)       -179.2717         calculate D2E/DX2 analytically  !
 ! D181  D(65,60,61,62)       -178.6719         calculate D2E/DX2 analytically  !
 ! D182  D(65,60,61,77)          0.8963         calculate D2E/DX2 analytically  !
 ! D183  D(60,61,62,63)         -1.6301         calculate D2E/DX2 analytically  !
 ! D184  D(60,61,62,83)        179.1451         calculate D2E/DX2 analytically  !
 ! D185  D(77,61,62,63)        178.7754         calculate D2E/DX2 analytically  !
 ! D186  D(77,61,62,83)         -0.4494         calculate D2E/DX2 analytically  !
 ! D187  D(60,61,77,75)       -179.3281         calculate D2E/DX2 analytically  !
 ! D188  D(60,61,77,78)          0.7704         calculate D2E/DX2 analytically  !
 ! D189  D(62,61,77,75)          0.2385         calculate D2E/DX2 analytically  !
 ! D190  D(62,61,77,78)       -179.663          calculate D2E/DX2 analytically  !
 ! D191  D(61,62,63,58)          0.3826         calculate D2E/DX2 analytically  !
 ! D192  D(61,62,63,66)       -179.1643         calculate D2E/DX2 analytically  !
 ! D193  D(83,62,63,58)        179.6455         calculate D2E/DX2 analytically  !
 ! D194  D(83,62,63,66)          0.0986         calculate D2E/DX2 analytically  !
 ! D195  D(61,62,83,74)          0.0166         calculate D2E/DX2 analytically  !
 ! D196  D(63,62,83,74)       -179.2476         calculate D2E/DX2 analytically  !
 ! D197  D(58,67,68,47)        -68.7915         calculate D2E/DX2 analytically  !
 ! D198  D(58,67,68,69)         39.0013         calculate D2E/DX2 analytically  !
 ! D199  D(58,67,68,70)       -167.434          calculate D2E/DX2 analytically  !
 ! D200  D(89,67,68,47)        111.988          calculate D2E/DX2 analytically  !
 ! D201  D(89,67,68,69)       -140.2192         calculate D2E/DX2 analytically  !
 ! D202  D(89,67,68,70)         13.3455         calculate D2E/DX2 analytically  !
 ! D203  D(58,67,87,85)         49.0624         calculate D2E/DX2 analytically  !
 ! D204  D(58,67,87,88)        -97.0719         calculate D2E/DX2 analytically  !
 ! D205  D(68,67,87,85)       -127.5405         calculate D2E/DX2 analytically  !
 ! D206  D(68,67,87,88)         86.3252         calculate D2E/DX2 analytically  !
 ! D207  D(47,68,69,49)         -5.846          calculate D2E/DX2 analytically  !
 ! D208  D(67,68,69,49)       -109.4075         calculate D2E/DX2 analytically  !
 ! D209  D(70,68,69,49)        101.4035         calculate D2E/DX2 analytically  !
 ! D210  D(47,68,70,71)         73.659          calculate D2E/DX2 analytically  !
 ! D211  D(47,68,70,72)       -168.2587         calculate D2E/DX2 analytically  !
 ! D212  D(47,68,70,73)        -48.339          calculate D2E/DX2 analytically  !
 ! D213  D(67,68,70,71)        171.208          calculate D2E/DX2 analytically  !
 ! D214  D(67,68,70,72)        -70.7097         calculate D2E/DX2 analytically  !
 ! D215  D(67,68,70,73)         49.21           calculate D2E/DX2 analytically  !
 ! D216  D(69,68,70,71)        -36.6284         calculate D2E/DX2 analytically  !
 ! D217  D(69,68,70,72)         81.4539         calculate D2E/DX2 analytically  !
 ! D218  D(69,68,70,73)       -158.6264         calculate D2E/DX2 analytically  !
 ! D219  D(82,74,75,76)         -0.704          calculate D2E/DX2 analytically  !
 ! D220  D(82,74,75,77)        178.969          calculate D2E/DX2 analytically  !
 ! D221  D(83,74,75,76)        179.5282         calculate D2E/DX2 analytically  !
 ! D222  D(83,74,75,77)         -0.7987         calculate D2E/DX2 analytically  !
 ! D223  D(75,74,83,62)          0.5876         calculate D2E/DX2 analytically  !
 ! D224  D(82,74,83,62)       -179.2003         calculate D2E/DX2 analytically  !
 ! D225  D(74,75,77,61)          0.3832         calculate D2E/DX2 analytically  !
 ! D226  D(74,75,77,78)       -179.7176         calculate D2E/DX2 analytically  !
 ! D227  D(76,75,77,61)       -179.965          calculate D2E/DX2 analytically  !
 ! D228  D(76,75,77,78)         -0.0657         calculate D2E/DX2 analytically  !
 ! D229  D(61,77,78,79)        -59.8929         calculate D2E/DX2 analytically  !
 ! D230  D(61,77,78,80)         58.8641         calculate D2E/DX2 analytically  !
 ! D231  D(61,77,78,81)        179.5065         calculate D2E/DX2 analytically  !
 ! D232  D(75,77,78,79)        120.209          calculate D2E/DX2 analytically  !
 ! D233  D(75,77,78,80)       -121.0341         calculate D2E/DX2 analytically  !
 ! D234  D(75,77,78,81)         -0.3916         calculate D2E/DX2 analytically  !
 ! D235  D(11,84,87,88)       -155.7718         calculate D2E/DX2 analytically  !
 ! D236  D(11,84,87,89)         62.6213         calculate D2E/DX2 analytically  !
 ! D237  D(86,84,87,88)         76.0275         calculate D2E/DX2 analytically  !
 ! D238  D(86,84,87,89)        -65.5794         calculate D2E/DX2 analytically  !
 --------------------------------------------------------------------------------
 Trust Radius=3.00D-02 FncErr=1.00D-07 GrdErr=1.00D-06 EigMax=2.50D+02 EigMin=1.00D-04
 Number of steps in this run=    523 maximum allowed number of steps=    534.
 Search for a saddle point of order  1.
 GradGradGradGradGradGradGradGradGradGradGradGradGradGradGradGradGradGrad

 Stoichiometry    C28H43N6O11Zn(1+)
 Framework group  C1[X(C28H43N6O11Zn)]
 Deg. of freedom   261
 Full point group                 C1      NOp   1
 Largest Abelian subgroup         C1      NOp   1
 Largest concise Abelian subgroup C1      NOp   1
                         Standard orientation:                         
 ---------------------------------------------------------------------
 Center     Atomic      Atomic             Coordinates (Angstroms)
 Number     Number       Type             X           Y           Z
 ---------------------------------------------------------------------
      1          6           0        3.283997    5.241763    0.600706
      2          1           0        4.013945    5.472312    1.375804
      3          6           0        2.650977    3.872832    0.851936
      4          1           0        2.166924    3.863080    1.833342
      5          1           0        3.424073    3.102643    0.894840
      6          7           0        1.333070    2.179052   -0.479271
      7          6           0        1.646056    3.492059   -0.189681
      8          6           0        0.383482    2.207475   -1.399966
      9          1           0       -0.089278    1.333556   -1.821709
     10          7           0        0.073728    3.467084   -1.721481
     11          1           0       -0.647388    3.712939   -2.410390
     12          6           0        0.864370    4.299693   -0.969432
     13          1           0        0.803315    5.370361   -1.050535
     14          6           0       -2.471691    2.408685    2.450874
     15          1           0       -2.227422    3.182030    3.181246
     16          6           0       -1.206082    1.882497    1.766473
     17          1           0       -0.716324    2.693493    1.218493
     18          1           0       -1.466339    1.118624    1.025297
     19          7           0        0.936971    0.636213    2.332747
     20          6           0       -0.227905    1.279864    2.726519
     21          6           0        1.531665    0.207974    3.430529
     22          1           0        2.451702   -0.351588    3.469109
     23          7           0        0.816489    0.546436    4.510101
     24          1           0        1.058115    0.331982    5.465964
     25          6           0       -0.302948    1.224398    4.087260
     26          1           0       -1.040154    1.593876    4.777052
     27          6           0        3.888152   -3.621659    0.362861
     28          1           0        4.947619   -3.843996    0.259856
     29          6           0        3.391301   -2.752596   -0.809968
     30          1           0        2.324868   -2.545034   -0.702679
     31          1           0        3.517660   -3.322721   -1.731046
     32          7           0        3.613029   -0.247009   -0.456120
     33          6           0        4.111893   -1.447639   -0.937339
     34          6           0        4.497315    0.682857   -0.766914
     35          1           0        4.409686    1.735852   -0.559937
     36          7           0        5.537966    0.142106   -1.412528
     37          1           0        6.339711    0.647807   -1.760078
     38          6           0        5.314394   -1.205021   -1.533770
     39          1           0        6.007301   -1.861333   -2.029750
     40          6           0        3.681703   -2.880195    1.663886
     41          8           0        4.581244   -2.464081    2.353264
     42          8           0        2.416310   -2.644571    2.015258
     43         30           0        1.732160    0.279143    0.398611
     44          8           0       -1.517759   -1.873216    1.444361
     45          1           0       -2.391519   -2.102354    1.107330
     46          1           0       -0.964409   -2.655241    1.277620
     47          8           0        0.417375   -0.840073   -0.558153
     48          1           0       -0.332199   -1.051329    0.019820
     49          1           0        0.303903   -3.441800   -0.396566
     50          8           0        0.429719   -3.723837    0.536653
     51          1           0        1.751968   -3.051120    1.405399
     52          1           0        0.326927   -4.682300    0.552993
     53          1           0        3.787504    5.263369   -0.366519
     54          1           0        2.528817    6.028932    0.608754
     55          1           0       -3.152827    2.831375    1.714582
     56          1           0       -2.997478    1.603167    2.967751
     57          1           0        3.322973   -4.555589    0.381406
     58          6           0       -2.258577   -1.186312   -1.827793
     59          6           0       -2.868848   -2.434019   -1.686824
     60          6           0       -3.995857   -2.537980   -0.894188
     61          6           0       -4.539240   -1.421459   -0.243596
     62          6           0       -3.917203   -0.186433   -0.441561
     63          6           0       -2.780680   -0.057613   -1.223700
     64          1           0       -2.456732   -3.296132   -2.186443
     65          1           0       -4.470222   -3.503147   -0.776038
     66          1           0       -2.313772    0.910353   -1.347246
     67          8           0       -1.134914   -0.992386   -2.599607
     68          6           0        0.025833   -1.741721   -2.335516
     69          8           0       -0.057319   -2.916424   -2.025730
     70          6           0        1.172389   -1.138425   -3.088837
     71          1           0        2.097146   -1.610588   -2.772256
     72          1           0        1.017573   -1.343229   -4.150825
     73          1           0        1.232639   -0.064373   -2.937824
     74          6           0       -5.495197    0.954252    0.945699
     75          6           0       -6.146791   -0.322655    1.173645
     76          1           0       -7.012127   -0.293134    1.820817
     77          6           0       -5.712401   -1.468657    0.614765
     78          6           0       -6.400301   -2.774217    0.856143
     79          1           0       -6.753153   -3.199042   -0.085575
     80          1           0       -5.709261   -3.492462    1.301598
     81          1           0       -7.249952   -2.645419    1.522248
     82          8           0       -5.844972    2.014399    1.401405
     83          8           0       -4.388334    0.952468    0.137749
     84          8           0       -1.914373    3.485616   -3.676752
     85          1           0       -1.761723    2.599954   -4.064048
     86          1           0       -2.846500    3.522220   -3.442043
     87          8           0       -1.176490    1.020491   -4.600759
     88          1           0       -1.378596    0.679579   -5.477816
     89          1           0       -1.203270    0.259410   -3.999253
 ---------------------------------------------------------------------
 Rotational constants (GHZ):           0.0830015           0.0523602           0.0484260
 General basis read from cards:  (5D, 7F)
 ======================================================================================================
                                       Pseudopotential Parameters
 ======================================================================================================
  Center     Atomic      Valence      Angular      Power
  Number     Number     Electrons     Momentum     of R      Exponent        Coefficient   SO-Coeffient
 ======================================================================================================
    1          6
                                   No pseudopotential on this center.
    2          1
                                   No pseudopotential on this center.
    3          6
                                   No pseudopotential on this center.
    4          1
                                   No pseudopotential on this center.
    5          1
                                   No pseudopotential on this center.
    6          7
                                   No pseudopotential on this center.
    7          6
                                   No pseudopotential on this center.
    8          6
                                   No pseudopotential on this center.
    9          1
                                   No pseudopotential on this center.
   10          7
                                   No pseudopotential on this center.
   11          1
                                   No pseudopotential on this center.
   12          6
                                   No pseudopotential on this center.
   13          1
                                   No pseudopotential on this center.
   14          6
                                   No pseudopotential on this center.
   15          1
                                   No pseudopotential on this center.
   16          6
                                   No pseudopotential on this center.
   17          1
                                   No pseudopotential on this center.
   18          1
                                   No pseudopotential on this center.
   19          7
                                   No pseudopotential on this center.
   20          6
                                   No pseudopotential on this center.
   21          6
                                   No pseudopotential on this center.
   22          1
                                   No pseudopotential on this center.
   23          7
                                   No pseudopotential on this center.
   24          1
                                   No pseudopotential on this center.
   25          6
                                   No pseudopotential on this center.
   26          1
                                   No pseudopotential on this center.
   27          6
                                   No pseudopotential on this center.
   28          1
                                   No pseudopotential on this center.
   29          6
                                   No pseudopotential on this center.
   30          1
                                   No pseudopotential on this center.
   31          1
                                   No pseudopotential on this center.
   32          7
                                   No pseudopotential on this center.
   33          6
                                   No pseudopotential on this center.
   34          6
                                   No pseudopotential on this center.
   35          1
                                   No pseudopotential on this center.
   36          7
                                   No pseudopotential on this center.
   37          1
                                   No pseudopotential on this center.
   38          6
                                   No pseudopotential on this center.
   39          1
                                   No pseudopotential on this center.
   40          6
                                   No pseudopotential on this center.
   41          8
                                   No pseudopotential on this center.
   42          8
                                   No pseudopotential on this center.
   43         30           12
                                      F and up 
                                                     1      386.7379660      -18.00000000    0.00000000
                                                     2       72.8587359     -124.35274030    0.00000000
                                                     2       15.9066170      -30.66018220    0.00000000
                                                     2        4.3502340      -10.63589890    0.00000000
                                                     2        1.2842199       -0.76836230    0.00000000
                                      S - F
                                                     0       19.0867858        3.00000000    0.00000000
                                                     1        5.0231080       22.52342250    0.00000000
                                                     2        1.2701744       48.44659420    0.00000000
                                                     2        1.0671287      -44.55601190    0.00000000
                                                     2        0.9264190       12.99839580    0.00000000
                                      P - F
                                                     0       43.4927750        5.00000000    0.00000000
                                                     1       20.8692669       20.74355890    0.00000000
                                                     2       21.7118378       90.30271580    0.00000000
                                                     2        6.3616915       74.66103160    0.00000000
                                                     2        1.2291195        9.88944240    0.00000000
                                      D - F
                                                     2       13.5851800       -4.84903590    0.00000000
                                                     2        9.8373050        3.69133790    0.00000000
                                                     2        0.8373113       -0.50373190    0.00000000
   44          8
                                   No pseudopotential on this center.
   45          1
                                   No pseudopotential on this center.
   46          1
                                   No pseudopotential on this center.
   47          8
                                   No pseudopotential on this center.
   48          1
                                   No pseudopotential on this center.
   49          1
                                   No pseudopotential on this center.
   50          8
                                   No pseudopotential on this center.
   51          1
                                   No pseudopotential on this center.
   52          1
                                   No pseudopotential on this center.
   53          1
                                   No pseudopotential on this center.
   54          1
                                   No pseudopotential on this center.
   55          1
                                   No pseudopotential on this center.
   56          1
                                   No pseudopotential on this center.
   57          1
                                   No pseudopotential on this center.
   58          6
                                   No pseudopotential on this center.
   59          6
                                   No pseudopotential on this center.
   60          6
                                   No pseudopotential on this center.
   61          6
                                   No pseudopotential on this center.
   62          6
                                   No pseudopotential on this center.
   63          6
                                   No pseudopotential on this center.
   64          1
                                   No pseudopotential on this center.
   65          1
                                   No pseudopotential on this center.
   66          1
                                   No pseudopotential on this center.
   67          8
                                   No pseudopotential on this center.
   68          6
                                   No pseudopotential on this center.
   69          8
                                   No pseudopotential on this center.
   70          6
                                   No pseudopotential on this center.
   71          1
                                   No pseudopotential on this center.
   72          1
                                   No pseudopotential on this center.
   73          1
                                   No pseudopotential on this center.
   74          6
                                   No pseudopotential on this center.
   75          6
                                   No pseudopotential on this center.
   76          1
                                   No pseudopotential on this center.
   77          6
                                   No pseudopotential on this center.
   78          6
                                   No pseudopotential on this center.
   79          1
                                   No pseudopotential on this center.
   80          1
                                   No pseudopotential on this center.
   81          1
                                   No pseudopotential on this center.
   82          8
                                   No pseudopotential on this center.
   83          8
                                   No pseudopotential on this center.
   84          8
                                   No pseudopotential on this center.
   85          1
                                   No pseudopotential on this center.
   86          1
                                   No pseudopotential on this center.
   87          8
                                   No pseudopotential on this center.
   88          1
                                   No pseudopotential on this center.
   89          1
                                   No pseudopotential on this center.
 ======================================================================================================
 There are  1178 symmetry adapted cartesian basis functions of A   symmetry.
 There are  1131 symmetry adapted basis functions of A   symmetry.
  1131 basis functions,  1958 primitive gaussians,  1178 cartesian basis functions
   176 alpha electrons      176 beta electrons
       nuclear repulsion energy      6803.7453794181 Hartrees.
 NAtoms=   89 NActive=   89 NUniq=   89 SFac= 1.00D+00 NAtFMM=   60 NAOKFM=T Big=T
 Integral buffers will be    131072 words long.
 Raffenetti 2 integral format.
 Two-electron integral symmetry is turned on.
 Force inversion solution in PCM.
 ------------------------------------------------------------------------------
 Polarizable Continuum Model (PCM)
 =================================
 Model                : PCM.
 Atomic radii         : UFF (Universal Force Field).
 Polarization charges : Total charges.
 Charge compensation  : None.
 Solution method      : Matrix inversion.
 Cavity type          : Scaled VdW (van der Waals Surface) (Alpha=1.100).
 Cavity algorithm     : GePol (No added spheres)
                        Default sphere list used, NSphG=   89.
                        Lebedev-Laikov grids with approx.  5.0 points / Ang**2.
                        Smoothing algorithm: York/Karplus (Gamma=1.0000).
                        Polarization charges: spherical gaussians, with
                                              point-specific exponents (IZeta= 3).
                        Self-potential: point-specific (ISelfS= 7).
                        Self-field    : sphere-specific E.n sum rule (ISelfD= 2).
 1st derivatives      : Analytical E(r).r(x)/FMM algorithm (CHGder, D1EAlg=3).
                        Cavity 1st derivative terms included.
 2nd derivatives      : Analytical E(r).r(xy)/FMM algorithm (CHGder, D2EAlg=3).
                        Cavity 2nd derivative terms included.
 Solvent              : Water, Eps=  78.355300 Eps(inf)=   1.777849
 ------------------------------------------------------------------------------
 One-electron integrals computed using PRISM.
   1 Symmetry operations used in ECPInt.
 ECPInt:  NShTT=  170236 NPrTT=  582707 LenC2=  130845 LenP2D=  280201.
 LDataN:  DoStor=T MaxTD1= 5 Len=  102
 Number of processors reduced to  53 by ecpmxn.
 NBasis=  1131 RedAO= T EigKep=  5.40D-06  NBF=  1131
 NBsUse=  1131 1.00D-06 EigRej= -1.00D+00 NBFU=  1131
 ExpMin= 3.51D-02 ExpMax= 2.70D+04 ExpMxC= 9.22D+02 IAcc=3 IRadAn=         5 AccDes= 0.00D+00
 Harris functional with IExCor= 1009 and IRadAn=       5 diagonalized for initial guess.
 HarFok:  IExCor= 1009 AccDes= 0.00D+00 IRadAn=         5 IDoV= 1 UseB2=F ITyADJ=14
 ICtDFT=  3500011 ScaDFX=  1.000000  1.000000  1.000000  1.000000
 FoFCou: FMM=F IPFlag=           0 FMFlag=      100000 FMFlg1=        2001
         NFxFlg=           0 DoJE=T BraDBF=F KetDBF=T FulRan=T
         wScrn=  0.000000 ICntrl=       500 IOpCl=  0 I1Cent=   200000004 NGrid=           0
         NMat0=    1 NMatS0=      1 NMatT0=    0 NMatD0=    1 NMtDS0=    0 NMtDT0=    0
 Petite list used in FoFCou.
 Requested convergence on RMS density matrix=1.00D-08 within 128 cycles.
 Requested convergence on MAX density matrix=1.00D-06.
 Requested convergence on             energy=1.00D-06.
 No special actions if energy rises.
 Inv3:  Mode=1 IEnd=   100676547.
 Iteration    1 A*A^-1 deviation from unit magnitude is 6.00D-15 for   1967.
 Iteration    1 A*A^-1 deviation from orthogonality  is 5.61D-15 for   1967   1616.
 Iteration    1 A^-1*A deviation from unit magnitude is 4.00D-15 for   4719.
 Iteration    1 A^-1*A deviation from orthogonality  is 7.81D-15 for   3826   3760.
 Error on total polarization charges =  0.01900
 SCF Done:  E(RM062X) =  -2314.31431700     A.U. after   15 cycles
            NFock= 15  Conv=0.27D-08     -V/T= 1.9834
 DoSCS=F DFT=T ScalE2(SS,OS)=  1.000000  1.000000
 Range of M.O.s used for correlation:     1  1131
 NBasis=  1131 NAE=   176 NBE=   176 NFC=     0 NFV=     0
 NROrb=   1131 NOA=   176 NOB=   176 NVA=   955 NVB=   955

 **** Warning!!: The largest alpha MO coefficient is  0.63281174D+02

 PrsmSu:  requested number of processors reduced to:  44 ShMem   1 Linda.
   1 Symmetry operations used in ECPInt.
 ECPInt:  NShTT=  170236 NPrTT=  582707 LenC2=  130845 LenP2D=  280201.
 LDataN:  DoStor=T MaxTD1= 6 Len=  172
 Number of processors reduced to   6 by ecpmxn.
 Symmetrizing basis deriv contribution to polar:
 IMax=3 JMax=2 DiffMx= 0.00D+00
 G2DrvN: will do    45 centers at a time, making    2 passes.
 Calling FoFCou, ICntrl=  3107 FMM=T I1Cent=   0 AccDes= 0.00D+00.
 Calling FoFCou, ICntrl=  3107 FMM=T I1Cent=   0 AccDes= 0.00D+00.
 NEqPCM:  Using equilibrium solvation (IEInf=0, Eps=  78.3553, EpsInf=   1.7778)
 G2PCM: DoFxE=T DoFxN=T DoGrad=T DoDP/DQ/DG/TGxP=FFFF NFrqRd=   0 IEInf=0 SqF1=F DoCFld=F IF1Alg=4.
 End of G2Drv F.D. properties file   721 does not exist.
 End of G2Drv F.D. properties file   722 does not exist.
 End of G2Drv F.D. properties file   788 does not exist.
          IDoAtm=11111111111111111111111111111111111111111111111111
          IDoAtm=111111111111111111111111111111111111111
 NEqPCM:  Using equilibrium solvation (IEInf=0, Eps=  78.3553, EpsInf=   1.7778)
          Differentiating once with respect to electric field.
                with respect to dipole field.
          Differentiating once with respect to nuclear coordinates.
 CalDSu exits because no D1Ps are significant.
          There are   270 degrees of freedom in the 1st order CPHF.  IDoFFX=6 NUNeed=     3.
    270 vectors produced by pass  0 Test12= 1.68D-13 1.00D-09 XBig12= 2.54D+02 5.40D+00.
 AX will form    69 AO Fock derivatives at one time.
    270 vectors produced by pass  1 Test12= 1.68D-13 1.00D-09 XBig12= 2.61D+01 6.11D-01.
    267 vectors produced by pass  2 Test12= 1.68D-13 1.00D-09 XBig12= 4.75D-01 7.53D-02.
    267 vectors produced by pass  3 Test12= 1.68D-13 1.00D-09 XBig12= 4.54D-03 6.49D-03.
    267 vectors produced by pass  4 Test12= 1.68D-13 1.00D-09 XBig12= 3.23D-05 4.86D-04.
    267 vectors produced by pass  5 Test12= 1.68D-13 1.00D-09 XBig12= 1.64D-07 2.22D-05.
    198 vectors produced by pass  6 Test12= 1.68D-13 1.00D-09 XBig12= 6.84D-10 1.10D-06.
     32 vectors produced by pass  7 Test12= 1.68D-13 1.00D-09 XBig12= 2.47D-12 7.10D-08.
      3 vectors produced by pass  8 Test12= 1.68D-13 1.00D-09 XBig12= 1.04D-14 6.13D-09.
      3 vectors produced by pass  9 Test12= 1.68D-13 1.00D-09 XBig12= 3.88D-15 2.19D-09.
      3 vectors produced by pass 10 Test12= 1.68D-13 1.00D-09 XBig12= 3.42D-15 2.44D-09.
      2 vectors produced by pass 11 Test12= 1.68D-13 1.00D-09 XBig12= 3.23D-15 3.42D-09.
 InvSVY:  IOpt=1 It=  1 EMax= 4.26D-14
 Solved reduced A of dimension  1849 with   270 vectors.
 Isotropic polarizability for W=    0.000000      557.66 Bohr**3.
 End of Minotr F.D. properties file   721 does not exist.
 End of Minotr F.D. properties file   722 does not exist.
 End of Minotr F.D. properties file   788 does not exist.

 **********************************************************************

            Population analysis using the SCF density.

 **********************************************************************

 Orbital symmetries:
       Occupied  (A) (A) (A) (A) (A) (A) (A) (A) (A) (A) (A) (A)
                 (A) (A) (A) (A) (A) (A) (A) (A) (A) (A) (A) (A)
                 (A) (A) (A) (A) (A) (A) (A) (A) (A) (A) (A) (A)
                 (A) (A) (A) (A) (A) (A) (A) (A) (A) (A) (A) (A)
                 (A) (A) (A) (A) (A) (A) (A) (A) (A) (A) (A) (A)
                 (A) (A) (A) (A) (A) (A) (A) (A) (A) (A) (A) (A)
                 (A) (A) (A) (A) (A) (A) (A) (A) (A) (A) (A) (A)
                 (A) (A) (A) (A) (A) (A) (A) (A) (A) (A) (A) (A)
                 (A) (A) (A) (A) (A) (A) (A) (A) (A) (A) (A) (A)
                 (A) (A) (A) (A) (A) (A) (A) (A) (A) (A) (A) (A)
                 (A) (A) (A) (A) (A) (A) (A) (A) (A) (A) (A) (A)
                 (A) (A) (A) (A) (A) (A) (A) (A) (A) (A) (A) (A)
                 (A) (A) (A) (A) (A) (A) (A) (A) (A) (A) (A) (A)
                 (A) (A) (A) (A) (A) (A) (A) (A) (A) (A) (A) (A)
                 (A) (A) (A) (A) (A) (A) (A) (A)
       Virtual   (A) (A) (A) (A) (A) (A) (A) (A) (A) (A) (A) (A)
                 (A) (A) (A) (A) (A) (A) (A) (A) (A) (A) (A) (A)
                 (A) (A) (A) (A) (A) (A) (A) (A) (A) (A) (A) (A)
                 (A) (A) (A) (A) (A) (A) (A) (A) (A) (A) (A) (A)
                 (A) (A) (A) (A) (A) (A) (A) (A) (A) (A) (A) (A)
                 (A) (A) (A) (A) (A) (A) (A) (A) (A) (A) (A) (A)
                 (A) (A) (A) (A) (A) (A) (A) (A) (A) (A) (A) (A)
                 (A) (A) (A) (A) (A) (A) (A) (A) (A) (A) (A) (A)
                 (A) (A) (A) (A) (A) (A) (A) (A) (A) (A) (A) (A)
                 (A) (A) (A) (A) (A) (A) (A) (A) (A) (A) (A) (A)
                 (A) (A) (A) (A) (A) (A) (A) (A) (A) (A) (A) (A)
                 (A) (A) (A) (A) (A) (A) (A) (A) (A) (A) (A) (A)
                 (A) (A) (A) (A) (A) (A) (A) (A) (A) (A) (A) (A)
                 (A) (A) (A) (A) (A) (A) (A) (A) (A) (A) (A) (A)
                 (A) (A) (A) (A) (A) (A) (A) (A) (A) (A) (A) (A)
                 (A) (A) (A) (A) (A) (A) (A) (A) (A) (A) (A) (A)
                 (A) (A) (A) (A) (A) (A) (A) (A) (A) (A) (A) (A)
                 (A) (A) (A) (A) (A) (A) (A) (A) (A) (A) (A) (A)
                 (A) (A) (A) (A) (A) (A) (A) (A) (A) (A) (A) (A)
                 (A) (A) (A) (A) (A) (A) (A) (A) (A) (A) (A) (A)
                 (A) (A) (A) (A) (A) (A) (A) (A) (A) (A) (A) (A)
                 (A) (A) (A) (A) (A) (A) (A) (A) (A) (A) (A) (A)
                 (A) (A) (A) (A) (A) (A) (A) (A) (A) (A) (A) (A)
                 (A) (A) (A) (A) (A) (A) (A) (A) (A) (A) (A) (A)
                 (A) (A) (A) (A) (A) (A) (A) (A) (A) (A) (A) (A)
                 (A) (A) (A) (A) (A) (A) (A) (A) (A) (A) (A) (A)
[...]
 Alpha virt. eigenvalues --    2.85325   2.85784   2.86098   2.86128   2.86767
 Alpha virt. eigenvalues --    2.87002   2.87902   2.88571   2.88696   2.88842
 Alpha virt. eigenvalues --    2.89531   2.89708   2.90178   2.90558   2.90684
 Alpha virt. eigenvalues --    2.90883   2.90994   2.91048   2.91340   2.91975
 Alpha virt. eigenvalues --    2.92209   2.92893   2.92946   2.93238   2.93434
 Alpha virt. eigenvalues --    2.94004   2.94185   2.94313   2.94892   2.95272
 Alpha virt. eigenvalues --    2.95465   2.95702   2.95864   2.96490   2.96638
 Alpha virt. eigenvalues --    2.97510   2.97701   2.98498   2.98770   2.99010
 Alpha virt. eigenvalues --    2.99279   2.99619   3.00137   3.00418   3.00818
 Alpha virt. eigenvalues --    3.01285   3.01446   3.01891   3.02362   3.02624
 Alpha virt. eigenvalues --    3.02775   3.03166   3.03723   3.03813   3.04193
 Alpha virt. eigenvalues --    3.04816   3.05299   3.05468   3.05781   3.06048
 Alpha virt. eigenvalues --    3.06204   3.06999   3.07251   3.07692   3.07865
 Alpha virt. eigenvalues --    3.08382   3.08578   3.08673   3.08965   3.09240
 Alpha virt. eigenvalues --    3.09481   3.09981   3.10233   3.10494   3.10679
 Alpha virt. eigenvalues --    3.11071   3.11505   3.12085   3.12254   3.12546
 Alpha virt. eigenvalues --    3.13295   3.13675   3.13801   3.14166   3.14754
 Alpha virt. eigenvalues --    3.14901   3.15160   3.15425   3.15568   3.15701
 Alpha virt. eigenvalues --    3.16406   3.16878   3.17276   3.17641   3.17842
 Alpha virt. eigenvalues --    3.18189   3.18375   3.18629   3.19003   3.19327
 Alpha virt. eigenvalues --    3.19947   3.20113   3.20591   3.20723   3.20930
 Alpha virt. eigenvalues --    3.21629   3.21919   3.22051   3.22214   3.22544
 Alpha virt. eigenvalues --    3.23120   3.23656   3.23869   3.24172   3.24534
 Alpha virt. eigenvalues --    3.24906   3.25035   3.25786   3.26196   3.26357
 Alpha virt. eigenvalues --    3.26640   3.26991   3.27157   3.28052   3.28508
 Alpha virt. eigenvalues --    3.28832   3.29096   3.29303   3.29400   3.30091
 Alpha virt. eigenvalues --    3.30516   3.30985   3.31136   3.31301   3.31463
 Alpha virt. eigenvalues --    3.31774   3.32180   3.32428   3.32683   3.33034
 Alpha virt. eigenvalues --    3.33173   3.33391   3.34108   3.34445   3.34519
 Alpha virt. eigenvalues --    3.34659   3.34972   3.35199   3.35492   3.36061
 Alpha virt. eigenvalues --    3.36157   3.36428   3.36789   3.37216   3.37360
 Alpha virt. eigenvalues --    3.37783   3.37958   3.38262   3.38917   3.39019
 Alpha virt. eigenvalues --    3.39567   3.39729   3.39913   3.40334   3.41291
 Alpha virt. eigenvalues --    3.41468   3.41645   3.42175   3.42781   3.43058
 Alpha virt. eigenvalues --    3.43482   3.44107   3.44399   3.44611   3.44943
 Alpha virt. eigenvalues --    3.45389   3.45659   3.45763   3.46383   3.46662
 Alpha virt. eigenvalues --    3.47078   3.47373   3.47709   3.47928   3.48262
 Alpha virt. eigenvalues --    3.48506   3.48709   3.48800   3.49057   3.49472
 Alpha virt. eigenvalues --    3.50145   3.50356   3.51142   3.51438   3.51815
 Alpha virt. eigenvalues --    3.52219   3.52344   3.53135   3.53268   3.53782
 Alpha virt. eigenvalues --    3.54325   3.54793   3.54911   3.55088   3.55830
 Alpha virt. eigenvalues --    3.56292   3.57078   3.57380   3.57671   3.57963
 Alpha virt. eigenvalues --    3.58448   3.59128   3.59462   3.60334   3.60611
 Alpha virt. eigenvalues --    3.61188   3.61550   3.62020   3.62737   3.63152
 Alpha virt. eigenvalues --    3.63324   3.63630   3.63976   3.64459   3.64905
 Alpha virt. eigenvalues --    3.65449   3.66420   3.66861   3.67503   3.67953
 Alpha virt. eigenvalues --    3.68369   3.68745   3.69011   3.69510   3.70628
 Alpha virt. eigenvalues --    3.71048   3.71359   3.71578   3.71981   3.72499
 Alpha virt. eigenvalues --    3.73539   3.73767   3.74122   3.75479   3.76108
 Alpha virt. eigenvalues --    3.76594   3.77253   3.77721   3.78425   3.78801
 Alpha virt. eigenvalues --    3.78878   3.79453   3.79823   3.80523   3.80619
 Alpha virt. eigenvalues --    3.81172   3.81815   3.82156   3.82519   3.83900
 Alpha virt. eigenvalues --    3.84518   3.85672   3.86124   3.86536   3.87403
 Alpha virt. eigenvalues --    3.87576   3.88905   3.89655   3.89822   3.90608
 Alpha virt. eigenvalues --    3.91593   3.92061   3.92421   3.93028   3.93317
 Alpha virt. eigenvalues --    3.94781   3.95118   3.96291   3.96507   3.96798
 Alpha virt. eigenvalues --    3.97400   3.97615   3.98245   3.98738   3.98768
 Alpha virt. eigenvalues --    3.99209   3.99675   3.99963   4.00918   4.01020
 Alpha virt. eigenvalues --    4.02047   4.02198   4.02680   4.03056   4.03822
 Alpha virt. eigenvalues --    4.04299   4.05235   4.05993   4.06940   4.07388
 Alpha virt. eigenvalues --    4.09040   4.10599   4.11669   4.11980   4.12262
 Alpha virt. eigenvalues --    4.13255   4.14439   4.14864   4.15653   4.16097
 Alpha virt. eigenvalues --    4.16624   4.16898   4.17605   4.18065   4.18609
 Alpha virt. eigenvalues --    4.19796   4.20955   4.21397   4.21709   4.22295
 Alpha virt. eigenvalues --    4.22909   4.25036   4.25535   4.26363   4.27115
 Alpha virt. eigenvalues --    4.27578   4.29748   4.30123   4.30769   4.31197
 Alpha virt. eigenvalues --    4.31868   4.32094   4.33478   4.34038   4.35843
 Alpha virt. eigenvalues --    4.36197   4.37385   4.38111   4.38500   4.39201
 Alpha virt. eigenvalues --    4.39531   4.41937   4.42310   4.42476   4.43060
 Alpha virt. eigenvalues --    4.43298   4.44006   4.45722   4.46457   4.46799
 Alpha virt. eigenvalues --    4.47986   4.48228   4.49190   4.49502   4.50119
 Alpha virt. eigenvalues --    4.50574   4.51609   4.51975   4.53587   4.54365
 Alpha virt. eigenvalues --    4.55347   4.56590   4.57112   4.58117   4.59350
 Alpha virt. eigenvalues --    4.60595   4.61145   4.61571   4.62015   4.62461
 Alpha virt. eigenvalues --    4.63138   4.63583   4.64710   4.64829   4.65022
 Alpha virt. eigenvalues --    4.65722   4.66077   4.66470   4.66881   4.67783
 Alpha virt. eigenvalues --    4.68749   4.69141   4.69569   4.70112   4.72288
 Alpha virt. eigenvalues --    4.73052   4.73188   4.74964   4.76314   4.77239
 Alpha virt. eigenvalues --    4.77476   4.78243   4.78737   4.79665   4.81715
 Alpha virt. eigenvalues --    4.82018   4.83011   4.84052   4.84179   4.85036
 Alpha virt. eigenvalues --    4.85721   4.86374   4.86517   4.87264   4.87647
 Alpha virt. eigenvalues --    4.88674   4.89122   4.89716   4.90112   4.90279
 Alpha virt. eigenvalues --    4.91403   4.92070   4.92537   4.93472   4.98075
 Alpha virt. eigenvalues --    4.98281   4.98860   4.99950   5.00248   5.01286
 Alpha virt. eigenvalues --    5.01632   5.02815   5.03246   5.04692   5.05723
 Alpha virt. eigenvalues --    5.06822   5.09694   5.10472   5.11202   5.11615
 Alpha virt. eigenvalues --    5.12472   5.13414   5.14074   5.14683   5.15763
 Alpha virt. eigenvalues --    5.16158   5.16283   5.18138   5.19431   5.20294
 Alpha virt. eigenvalues --    5.21001   5.21244   5.21707   5.21893   5.22349
 Alpha virt. eigenvalues --    5.22860   5.23122   5.23248   5.24104   5.24459
 Alpha virt. eigenvalues --    5.24742   5.25772   5.26311   5.26901   5.28051
 Alpha virt. eigenvalues --    5.28362   5.28640   5.30174   5.31486   5.32397
 Alpha virt. eigenvalues --    5.32747   5.33298   5.33772   5.34818   5.35345
 Alpha virt. eigenvalues --    5.35640   5.36259   5.37005   5.37624   5.39280
 Alpha virt. eigenvalues --    5.40153   5.40376   5.40571   5.40740   5.40974
 Alpha virt. eigenvalues --    5.41073   5.41230   5.42175   5.42403   5.42724
 Alpha virt. eigenvalues --    5.43223   5.43937   5.44177   5.44575   5.45134
 Alpha virt. eigenvalues --    5.45267   5.45715   5.46265   5.46400   5.47580
 Alpha virt. eigenvalues --    5.48319   5.49169   5.49457   5.49700   5.50476
 Alpha virt. eigenvalues --    5.50599   5.51010   5.51548   5.52075   5.53103
 Alpha virt. eigenvalues --    5.54189   5.55132   5.56291   5.57104   5.57726
 Alpha virt. eigenvalues --    5.58293   5.58326   5.61048   5.61607   5.62625
 Alpha virt. eigenvalues --    5.63001   5.63107   5.64457   5.75514   5.76936
 Alpha virt. eigenvalues --    5.80298   5.84433   5.85200   5.86022   5.86573
 Alpha virt. eigenvalues --    5.88377   5.89649   5.94144   5.95055   5.97812
 Alpha virt. eigenvalues --    5.98326   5.99045   5.99560   5.99874   6.01742
 Alpha virt. eigenvalues --    6.01916   6.02306   6.02757   6.03900   6.05084
 Alpha virt. eigenvalues --    6.06317   6.15894   6.16332   6.16919   6.18879
 Alpha virt. eigenvalues --    6.20594   6.20750   6.24287   6.25965   6.26509
 Alpha virt. eigenvalues --    6.28860   6.31409   6.32567   6.34739   6.36039
 Alpha virt. eigenvalues --    6.36482   6.36573   6.37046   6.37367   6.38805
 Alpha virt. eigenvalues --    6.39132   6.39545   6.41916   6.42637   6.44083
 Alpha virt. eigenvalues --    6.44392   6.45869   6.47096   6.48483   6.48662
 Alpha virt. eigenvalues --    6.49459   6.50099   6.51204   6.53661   6.57429
 Alpha virt. eigenvalues --    6.61726   6.63146   6.63853   6.64851   6.68446
 Alpha virt. eigenvalues --    6.70374   6.74246   6.75384   6.77580   6.79266
 Alpha virt. eigenvalues --    6.79478   6.82319   6.82503   6.84234   6.84906
 Alpha virt. eigenvalues --    6.85875   6.91715   6.92275   6.94428   6.95750
 Alpha virt. eigenvalues --    6.96840   6.97261   7.00551   7.03045   7.03112
 Alpha virt. eigenvalues --    7.06389   7.07121   7.07447   7.07720   7.08702
 Alpha virt. eigenvalues --    7.09392   7.10466   7.11784   7.14649   7.23889
 Alpha virt. eigenvalues --    7.30842   7.31763   7.33807   7.40775   7.44324
 Alpha virt. eigenvalues --   22.42995  22.47439  22.55225  22.58749  22.60812
 Alpha virt. eigenvalues --   22.63381  22.66353  22.67885  22.70582  22.76871
 Alpha virt. eigenvalues --   22.78501  22.79435  22.82765  22.89422  22.94977
 Alpha virt. eigenvalues --   23.01413  23.02685  23.04305  23.07854  23.16469
 Alpha virt. eigenvalues --   23.23877  23.26509  23.28116  23.29696  23.30926
 Alpha virt. eigenvalues --   23.44318  23.50602  23.66895  32.39453  32.41146
 Alpha virt. eigenvalues --   32.52360  32.67877  32.70080  32.77169  43.62108
 Alpha virt. eigenvalues --   43.68467  43.78066  43.84068  44.03829  44.09058
 Alpha virt. eigenvalues --   44.14514  44.19448  44.26244  44.59640  44.70483
 Alpha virt. eigenvalues --   69.30579  69.34070  69.41470  89.03243
          Condensed to atoms (all electrons):
 Mulliken charges:
               1
     1  C   -0.481018
     2  H    0.163727
     3  C   -0.314169
     4  H    0.173998
     5  H    0.167759
     6  N   -0.321604
     7  C    0.042362
     8  C    0.119336
     9  H    0.127071
    10  N   -0.246118
    11  H    0.329560
    12  C   -0.117087
    13  H    0.214520
    14  C   -0.552335
    15  H    0.175978
    16  C   -0.191266
    17  H    0.179759
    18  H    0.087404
    19  N   -0.313385
    20  C    0.054257
    21  C    0.063655
    22  H    0.212657
    23  N   -0.249442
    24  H    0.317617
    25  C   -0.114299
    26  H    0.225051
    27  C   -0.317087
    28  H    0.182981
    29  C   -0.362756
    30  H    0.105443
    31  H    0.209640
    32  N   -0.307782
    33  C    0.081479
    34  C    0.063767
    35  H    0.228847
    36  N   -0.245733
    37  H    0.320167
    38  C   -0.071054
    39  H    0.214525
    40  C    0.407667
    41  O   -0.468141
    42  O   -0.437878
    43  Zn   0.937430
    44  O   -0.739225
    45  H    0.384972
    46  H    0.395604
    47  O   -0.884062
    48  H    0.292557
    49  H    0.401782
    50  O   -0.774132
    51  H    0.415060
    52  H    0.408468
    53  H    0.163983
    54  H    0.162211
    55  H    0.165812
    56  H    0.181873
    57  H    0.211026
    58  C    0.283358
    59  C   -0.278450
    60  C   -0.208116
    61  C    0.044006
    62  C    0.238335
    63  C   -0.256007
    64  H    0.197263
    65  H    0.209236
    66  H    0.210856
    67  O   -0.373619
    68  C    0.612416
    69  O   -0.548674
    70  C   -0.556866
    71  H    0.186815
    72  H    0.208686
    73  H    0.190667
    74  C    0.370712
    75  C   -0.221696
    76  H    0.193149
    77  C    0.064438
    78  C   -0.547031
    79  H    0.200437
    80  H    0.197403
    81  H    0.174081
    82  O   -0.453666
    83  O   -0.248132
    84  O   -0.790714
    85  H    0.406483
    86  H    0.392797
    87  O   -0.766477
    88  H    0.397359
    89  H    0.389516
 Sum of Mulliken charges =   1.00000
 Mulliken charges with hydrogens summed into heavy atoms:
               1
     1  C    0.008902
     3  C    0.027588
     6  N   -0.321604
     7  C    0.042362
     8  C    0.246407
    10  N    0.083442
    12  C    0.097433
    14  C   -0.028672
    16  C    0.075897
    19  N   -0.313385
    20  C    0.054257
    21  C    0.276313
    23  N    0.068175
    25  C    0.110752
    27  C    0.076920
    29  C   -0.047673
    32  N   -0.307782
    33  C    0.081479
    34  C    0.292614
    36  N    0.074435
    38  C    0.143472
    40  C    0.407667
    41  O   -0.468141
    42  O   -0.022819
    43  Zn   0.937430
    44  O    0.041351
    47  O   -0.591505
    50  O    0.036118
    58  C    0.283358
    59  C   -0.081186
    60  C    0.001120
    61  C    0.044006
    62  C    0.238335
    63  C   -0.045151
    67  O   -0.373619
    68  C    0.612416
    69  O   -0.548674
    70  C    0.029302
    74  C    0.370712
    75  C   -0.028546
    77  C    0.064438
    78  C    0.024891
    82  O   -0.453666
    83  O   -0.248132
    84  O    0.008567
    87  O    0.020398
 Electronic spatial extent (au):  <R**2>=          25699.7327
 Charge=              1.0000 electrons
 Dipole moment (field-independent basis, Debye):
    X=              8.3175    Y=             -4.7926    Z=             -4.1484  Tot=             10.4575
 Quadrupole moment (field-independent basis, Debye-Ang):
   XX=           -205.3716   YY=           -230.8994   ZZ=           -227.3211
   XY=             52.0777   XZ=            -15.4210   YZ=             10.3026
 Traceless Quadrupole moment (field-independent basis, Debye-Ang):
   XX=             15.8257   YY=             -9.7020   ZZ=             -6.1237
   XY=             52.0777   XZ=            -15.4210   YZ=             10.3026
 Octapole moment (field-independent basis, Debye-Ang**2):
  XXX=            320.6500  YYY=           -150.7613  ZZZ=             78.4712  XYY=             71.2346
  XXY=           -179.4751  XXZ=           -263.1998  XZZ=             17.3340  YZZ=             15.0664
  YYZ=              3.0587  XYZ=            103.5090
 Hexadecapole moment (field-independent basis, Debye-Ang**3):
 XXXX=         -15199.8697 YYYY=          -7826.1153 ZZZZ=          -4673.6548 XXXY=           1754.9572
 XXXZ=          -1101.9070 YYYX=            147.3320 YYYZ=           -138.6810 ZZZX=            320.4554
 ZZZY=            302.7392 XXYY=          -4153.4545 XXZZ=          -3972.5288 YYZZ=          -2880.0840
 XXYZ=            -93.5288 YYXZ=            -18.2835 ZZXY=            100.8868
 N-N= 7.156602205917D+03 E-N=-2.009750794119D+04  KE= 2.392193592362D+03
 1\1\GINC-C72N02\SP\RM062X\GenECP\C28H43N6O11Zn1(1+)\DONGH_N\12-Aug-202
 4\0\\# geom(allcheck,modredundant) genecp scrf(SMD) m062x\\Title Card 
 Required\\1,1\C,0,3.2839967743,5.2417627496,0.600705589\H,0,4.01641800
 3,5.4720273,1.3735685662\C,0,2.6505227989,3.8734260427,0.8543681926\H,
 0,2.1696250524,3.8644607196,1.8373227355\H,0,3.4229916687,3.1024991256
 ,0.894904874\N,0,1.3330342857,2.180258345,-0.4783201295\C,0,1.64207388
 13,3.4931850417,-0.184078628\C,0,0.3791836303,2.2091020212,-1.39462587
 46\H,0,-0.0920282314,1.335315942,-1.8183567381\N,0,0.0628497884,3.4689
 275917,-1.7087512326\H,0,-0.6635752047,3.7149416536,-2.3919120975\C,0,
 0.8534803474,4.3012491413,-0.9563919898\H,0,0.7875702119,5.3720178484,
 -1.0321345828\C,0,-2.4716906323,2.4086850477,2.450873698\H,0,-2.228328
 2933,3.181366124,3.1822464438\C,0,-1.2052897596,1.8841279982,1.7665797
 266\H,0,-0.7157963952,2.6962330113,1.2199603905\H,0,-1.4646346939,1.12
 10534315,1.0242727394\N,0,0.9374021173,0.6367619077,2.3325877078\C,0,-
 0.2272648226,1.2808490133,2.7264446924\C,0,1.5318204732,0.2080744159,3
 .4303613123\H,0,2.4516426512,-0.3518573622,3.4688857678\N,0,0.81670678
 03,0.5465974223,4.5099436567\H,0,1.0581645894,0.3318388551,5.465783991
 6\C,0,-0.3024349554,1.2250605831,4.0871683549\H,0,-1.0395749388,1.5946
 277871,4.7769842109\C,0,3.8881517301,-3.6216592162,0.3628610746\H,0,4.
 9478620358,-3.8430829057,0.2604423375\C,0,3.3910616885,-2.7534087603,-
 0.8105118451\H,0,2.3245508888,-2.546096603,-0.703327902\H,0,3.51765222
 93,-3.3239521236,-1.7312939245\N,0,3.6133018338,-0.2477614473,-0.45669
 18842\C,0,4.1114636503,-1.4484338869,-0.9385336897\C,0,4.4975546187,0.
 6819462152,-0.768158641\H,0,4.4103996627,1.7349364607,-0.5609477553\N,
 0,5.5374851544,0.1410451743,-1.4147750196\H,0,6.3390604928,0.646605576
 7,-1.7629250856\C,0,5.3134769667,-1.2060018985,-1.5360119524\H,0,6.005
 7862697,-1.8624293638,-2.0326746698\C,0,3.680237595,-2.8799152742,1.66
 35209985\O,0,4.5789914175,-2.4629402886,2.3534257944\O,0,2.4144316938,
 -2.6451345933,2.0138627901\Zn,0,1.7333858281,0.2801208581,0.3984707074
 \O,0,-1.5236264975,-1.8762508921,1.4419038088\H,0,-2.3903655098,-2.114
 4200231,1.0931408017\H,0,-0.9610214907,-2.6534359246,1.2838297157\O,0,
 0.416353558,-0.839202491,-0.555729181\H,0,-0.3331235883,-1.0491103115,
 0.0228694365\H,0,0.3009733263,-3.4393651332,-0.3967734311\O,0,0.428856
 2867,-3.7239189144,0.5353964093\H,0,1.7507397174,-3.0523173629,1.40367
 59939\H,0,0.3252285195,-4.682311206,0.5496292803\H,0,3.7846581027,5.26
 24629029,-0.3680110085\H,0,2.529558783,6.0296071802,0.6106034252\H,0,-
 3.152671599,2.8317769262,1.714679752\H,0,-2.997211756,1.6022157243,2.9
 665331525\H,0,3.32377229,-4.5560705773,0.3814622096\C,0,-2.2624716342,
 -1.1808197229,-1.8267963847\C,0,-2.8747168293,-2.4279864816,-1.6894916
 769\C,0,-4.00292678,-2.5321583543,-0.8985465837\C,0,-4.5456247211,-1.4
 163356122,-0.2461707647\C,0,-3.9216496402,-0.1817728544,-0.4406024634\
 C,0,-2.7840105367,-0.0527301498,-1.2211090405\H,0,-2.4630931012,-3.289
 5639319,-2.1904383787\H,0,-4.4788140587,-3.496918894,-0.783231635\H,0,
 -2.3159617766,0.9150082467,-1.3421918535\O,0,-1.1377032715,-0.98662581
 93,-2.5968893214\C,0,0.0216902609,-1.7382276934,-2.3336707393\O,0,-0.0
 635498173,-2.9130405842,-2.0248333308\C,0,1.1691216562,-1.1361978752,-
 3.0866999345\H,0,2.0932884268,-1.6093324337,-2.7698394804\H,0,1.014410
 6597,-1.3409152284,-4.1487236365\H,0,1.2304706127,-0.0621844194,-2.935
 7072432\C,0,-5.4995659851,0.9579981067,0.9474393687\C,0,-6.1532614351,
 -0.3184923753,1.1716826603\H,0,-7.0192802446,-0.2892170661,1.817951646
 3\C,0,-5.7198403643,-1.4638421924,0.6107089087\C,0,-6.4098806992,-2.76
 89689926,0.8482916261\H,0,-6.7622203049,-3.1911424097,-0.0948084607\H,
 0,-5.7203927139,-3.4892151976,1.2929155189\H,0,-7.2601307207,-2.640487
 4066,1.5136924826\O,0,-5.8481870976,2.0175736851,1.405359086\O,0,-4.39
 1993154,0.9565163314,0.1404785866\O,0,-1.9468852105,3.4841041938,-3.64
 21290648\H,0,-1.7862794439,2.6036070367,-4.0377272799\H,0,-2.875294364
 2,3.5036340486,-3.3911464892\O,0,-1.179083127,1.0362039869,-4.58591653
 02\H,0,-1.3555101923,0.7033357497,-5.4715230659\H,0,-1.2055899202,0.26
 73826329,-3.9943707928\\Version=ES64L-G16RevA.03\State=1-A\HF=-2476.20
 79545\RMSD=2.838e-09\Dipole=3.2704099,-1.8833756,-1.6384901\Quadrupole
 =11.8940782,-7.3953898,-4.4986884,38.7349487,-11.2771906,7.6855921\PG=
 C01 [X(C28H43N6O11Zn1)]\\@


 GETTING A SIMPLE ANSWER FROM A PROFESSOR IS LIKE
 GETTING A THIMBLE OF WATER FROM A FIRE HYDRANT.
     -- PROF. LEN SHAPIRO, NDSU
 Job cpu time:       0 days 17 hours 25 minutes 26.7 seconds.
 Elapsed time:       0 days  0 hours 13 minutes 15.2 seconds.
 File lengths (MBytes):  RWF=   2170 Int=      0 D2E=      0 Chk=    256 Scr=      1
 Normal termination of Gaussian 16 at Mon Aug 12 17:20:31 2024.
