 Entering Gaussian System, Link 0=g16
 Initial command:
 /opt/g16/l1.exe "/tmp/Gau-234824.inp" -scrdir="/tmp/"
 Entering Link 1 = /opt/g16/l1.exe PID=    234826.
  
 Copyright (c) 1988,1990,1992,1993,1995,1998,2003,2009,2016,
            Gaussian, Inc.  All Rights Reserved.
  
 This is part of the Gaussian(R) 16 program.  It is based on
 the Gaussian(R) 09 system (copyright 2009, Gaussian, Inc.),
 the Gaussian(R) 03 system (copyright 2003, Gaussian, Inc.),
 the Gaussian(R) 98 system (copyright 1998, Gaussian, Inc.),
 the Gaussian(R) 94 system (copyright 1995, Gaussian, Inc.),
 the Gaussian 92(TM) system (copyright 1992, Gaussian, Inc.),
 the Gaussian 90(TM) system (copyright 1990, Gaussian, Inc.),
 the Gaussian 88(TM) system (copyright 1988, Gaussian, Inc.),
 the Gaussian 86(TM) system (copyright 1986, Carnegie Mellon
 University), and the Gaussian 82(TM) system (copyright 1983,
 Carnegie Mellon University). Gaussian is a federally registered
 trademark of Gaussian, Inc.
  
 This software contains proprietary and confidential information,
 including trade secrets, belonging to Gaussian, Inc.
  
 This software is provided under written license and may be
 used, copied, transmitted, or stored only in accord with that
 written license.
  
 The following legend is applicable only to US Government
 contracts under FAR:
  
                    RESTRICTED RIGHTS LEGEND
  
 Use, reproduction and disclosure by the US Government is
 subject to restrictions as set forth in subparagraphs (a)
 and (c) of the Commercial Computer Software - Restricted
 Rights clause in FAR 52.227-19.
  
 Gaussian, Inc.
 340 Quinnipiac St., Bldg. 40, Wallingford CT 06492
  
  
 ---------------------------------------------------------------
 Warning -- This program may not be used in any manner that
 competes with the business of Gaussian, Inc. or will provide
 assistance to any competitor of Gaussian, Inc.  The licensee
 of this program is prohibited from giving any competitor of
 Gaussian, Inc. access to this program.  By using this program,
 the user acknowledges that Gaussian, Inc. is engaged in the
 business of creating and licensing software in the field of
 computational chemistry and represents and warrants to the
 licensee that it is not a competitor of Gaussian, Inc. and that
 it will not use this program in any manner prohibited above.
 ---------------------------------------------------------------
  

 Cite this work as:
 Gaussian 16, Revision A.03,
 M. J. Frisch, G. W. Trucks, H. B. Schlegel, G. E. Scuseria, 
 M. A. Robb, J. R. Cheeseman, G. Scalmani, V. Barone, 
 G. A. Petersson, H. Nakatsuji, X. Li, M. Caricato, A. V. Marenich, 
 J. Bloino, B. G. Janesko, R. Gomperts, B. Mennucci, H. P. Hratchian, 
 J. V. Ortiz, A. F. Izmaylov, J. L. Sonnenberg, D. Williams-Young, 
 F. Ding, F. Lipparini, F. Egidi, J. Goings, B. Peng, A. Petrone, 
 T. Henderson, D. Ranasinghe, V. G. Zakrzewski, J. Gao, N. Rega, 
 G. Zheng, W. Liang, M. Hada, M. Ehara, K. Toyota, R. Fukuda, 
 J. Hasegawa, M. Ishida, T. Nakajima, Y. Honda, O. Kitao, H. Nakai, 
 T. Vreven, K. Throssell, J. A. Montgomery, Jr., J. E. Peralta, 
 F. Ogliaro, M. J. Bearpark, J. J. Heyd, E. N. Brothers, K. N. Kudin, 
 V. N. Staroverov, T. A. Keith, R. Kobayashi, J. Normand, 
 K. Raghavachari, A. P. Rendell, J. C. Burant, S. S. Iyengar, 
 J. Tomasi, M. Cossi, J. M. Millam, M. Klene, C. Adamo, R. Cammi, 
 J. W. Ochterski, R. L. Martin, K. Morokuma, O. Farkas, 
 J. B. Foresman, and D. J. Fox, Gaussian, Inc., Wallingford CT, 2016.
 
 ******************************************
 Gaussian 16:  ES64L-G16RevA.03 25-Dec-2016
                 6-Aug-2024 
 ******************************************
 %chk=11_tsopt_sp.chk
 %mem=64GB
 %nprocshared=24
 Will use up to   24 processors via shared memory.
 ----------------------------------------------------------------------
 # geom=allcheck opt=(ts,modredundant,noeigen,readfc,recalc=5,maxstep=1
 ,notrust,gdiis) scrf genecp m062x freq
 ----------------------------------------------------------------------

 Warning!  Use of Opt=GDIIS is deprecated since it is seldom a good choice.

 1/5=1,8=1,9=1,10=3,11=1,18=120,19=11,26=3,29=7,38=1,71=5/1,3;
 2/9=110,12=2,40=1/2;
 3/5=7,11=2,14=-4,16=1,17=8,25=1,30=1,70=2201,71=2,74=-55,140=1/1,2,3;
 4//1;
 5/5=2,38=5/2;
 8/6=4,10=90,11=11/1;
 11/6=1,8=1,9=11,15=111,16=1/1,2,10;
 10/6=1/2;
 6/7=2,8=2,9=2,10=2,28=1/1;
 7/10=1,25=1/1,2,3,16;
 1/5=1,8=1,9=1,11=1,18=20,19=11,26=3,71=5/3(3);
 2/9=110/2;
 7/9=1,25=1,44=-1/16;
 99//99;
 2/9=110/2;
 3/5=7,6=1,11=2,14=-2,16=1,17=8,25=1,30=1,70=2205,71=2,74=-55,82=7,140=1/1,2,3;
 4/5=5,16=3,69=1/1;
 5/5=2,38=5/2;
 8/6=4,10=90,11=11/1;
 11/6=1,8=1,9=11,15=111,16=1/1,2,10;
 10/6=1/2;
 7/10=1,25=1/1,2,3,16;
 1/5=1,8=1,9=1,11=1,18=20,19=11,26=3,71=5/3(-8);
 2/9=110/2;
 6/7=2,8=2,9=2,10=2,19=2,28=1/1;
 7/9=1,25=1,44=-1/16;
 99/9=1/99;
 Structure from the checkpoint file:  "11_tsopt_sp.chk"
 -------------------
 Title Card Required
 -------------------
 Charge =  1 Multiplicity = 1
 Redundant internal coordinates found in file.  (old form).
 C,0,2.8607689034,5.1795202275,1.450983205
 H,0,3.5859618173,5.3038332237,2.2543249248
 C,0,2.3031388653,3.7562844306,1.4497206163
 H,0,1.8301838286,3.5424388808,2.413091857
 H,0,3.1151961514,3.0331595767,1.350233047
 N,0,1.0934475629,2.2757547017,-0.2033526733
 C,0,1.3094254936,3.5206189304,0.3567376949
 C,0,0.1193797079,2.4184791095,-1.0906128255
 H,0,-0.3053203549,1.6288718832,-1.6920376015
 N,0,-0.2933271122,3.686891395,-1.1328173206
 H,0,-1.037822359,4.0128000602,-1.7628650629
 C,0,0.4477687976,4.4054313813,-0.2287998383
 H,0,0.3006976388,5.4603233132,-0.0808499385
 C,0,-2.6385655174,1.6051697319,2.6993323737
 H,0,-2.4632376331,2.1734214832,3.6143499812
 C,0,-1.3292827571,1.3798439155,1.9342863407
 H,0,-0.9172923764,2.3431503652,1.6176937556
 H,0,-1.522738575,0.8081106679,1.0206656658
 N,0,0.9067616749,0.1876176348,2.2315752356
 C,0,-0.302152043,0.6481748279,2.74101896
 C,0,1.5392596708,-0.4173411749,3.2227394768
 H,0,2.4967005003,-0.9055521715,3.1515654265
 N,0,0.8052822434,-0.3692402859,4.337911154
 H,0,1.0670001546,-0.7641191987,5.2289430061
 C,0,-0.3641662262,0.2977687218,4.0564206133
 H,0,-1.1232775159,0.4555914414,4.8009097577
 C,0,4.245197342,-3.447499713,-0.1738423966
 H,0,5.3190547802,-3.5672530484,-0.2948630601
 C,0,3.6770535393,-2.4795655787,-1.2307869148
 H,0,2.5942026727,-2.4096877859,-1.1262519687
 H,0,3.8700206386,-2.8943103965,-2.2204034935
 N,0,3.6582751702,-0.0242746815,-0.5401710231
 C,0,4.2737954202,-1.1112088656,-1.1447521423
 C,0,4.4934380582,0.9962786907,-0.6586453563
 H,0,4.3195693342,2.0013926657,-0.3130368886
 N,0,5.6044546057,0.6190147923,-1.2968773088
 H,0,6.3875369658,1.2186464333,-1.5140632249
 C,0,5.4875336794,-0.7081472726,-1.6161656947
 H,0,6.256217569,-1.2440806765,-2.1441171186
 C,0,3.979655227,-2.8825277741,1.2028293972
 O,0,4.8434460723,-2.4825456899,1.9452845623
 O,0,2.6994147157,-2.7738681184,1.5601111171
 Zn,0,1.780026103,0.3637598057,0.3453544796
 O,0,-1.1528073549,-1.9689576813,0.8969490054
 H,0,-2.0561816981,-2.1478209669,0.6025232213
 H,0,-0.6828621424,-2.8218445609,0.8593208446
 O,0,0.32571152,-0.6249133506,-0.8259922376
 H,0,-0.2932656066,-1.1345749986,-0.2194463553
 H,0,0.5463572799,-3.3735810438,-0.8327693188
 O,0,0.7537581176,-3.7965208782,0.0496796346
 H,0,2.05772447,-3.1847470822,0.9242520511
 H,0,0.7131112993,-4.7522515879,-0.0652287572
 H,0,3.3516550916,5.4030227936,0.5032078401
 H,0,2.0655472012,5.9104191247,1.6034342331
 H,0,-3.3459729025,2.1563961691,2.0829308891
 H,0,-3.098263867,0.6519340483,2.970096425
 H,0,3.758225344,-4.4194515991,-0.274371034
 C,0,-2.2574812228,-0.8369855146,-2.0349894818
 C,0,-2.7383216225,-2.1650291749,-2.0073555698
 C,0,-3.8082178713,-2.5016868885,-1.2074028324
 C,0,-4.456699571,-1.5416960999,-0.4107681722
 C,0,-3.9940690852,-0.2242505281,-0.4876871704
 C,0,-2.9084116405,0.1332795788,-1.2691448748
 H,0,-2.2392431623,-2.9052860802,-2.6155698006
 H,0,-4.1581138528,-3.5260042049,-1.1884308738
 H,0,-2.5740613287,1.163270017,-1.2828737331
 O,0,-1.1873938137,-0.5134039489,-2.7509326462
 C,0,0.3386187021,-1.2188457005,-2.1086908454
 O,0,0.2455833441,-2.4608291015,-2.1358191137
 C,0,1.2568951731,-0.4882497835,-3.0527374581
 H,0,2.2833182581,-0.7993299285,-2.8563344596
 H,0,0.9958514815,-0.7729091347,-4.0694996201
 H,0,1.1869271789,0.5922565411,-2.9440224137
 C,0,-5.6382075484,0.5486681661,1.0734196234
 C,0,-6.124079076,-0.8121200715,1.1684216186
 H,0,-6.9573589682,-0.9660662095,1.8394179851
 C,0,-5.5766317764,-1.825085955,0.463717985
 C,0,-6.0968022669,-3.2237558962,0.5713782342
 H,0,-6.4405533415,-3.5781078635,-0.402343347
 H,0,-5.3070941463,-3.8996360206,0.9048490575
 H,0,-6.9241899635,-3.2755990606,1.2750876826
 O,0,-6.0816427439,1.5020511023,1.6694686011
 O,0,-4.5848802992,0.7759824004,0.2292269174
 O,0,-2.2229999715,3.9321521157,-3.109785533
 H,0,-1.9714360057,3.1230777895,-3.605262056
 H,0,-3.1692779008,3.8705293666,-2.9487076753
 O,0,-1.3417813019,1.6643097103,-4.3152117213
 H,0,-0.6106433463,1.6653928057,-4.9401144623
 H,0,-1.2618148664,0.8396518304,-3.7816541364
 Recover connectivity data from disk.
 The following ModRedundant input section has been read:
 X      27 F                                                                   
 X       1 F                                                                   
 X      14 F                                                                   
 B      67      68 B                                                           
 In this task builder options are not available,
 so the previous line wont be used.
 

 GradGradGradGradGradGradGradGradGradGradGradGradGradGradGradGradGradGrad
 Berny optimization.
 Initialization pass.
 Force constant matrix read from checkpoint file:
 "11_tsopt_sp.chk"
                           ----------------------------
                           !    Initial Parameters    !
                           ! (Angstroms and Degrees)  !
 --------------------------                            --------------------------
 ! Name  Definition              Value          Derivative Info.                !
 --------------------------------------------------------------------------------
 ! X1    R(1,-1)                 2.8608         Frozen                          !
 ! Y1    R(1,-2)                 5.1795         Frozen                          !
 ! Z1    R(1,-3)                 1.451          Frozen                          !
 ! X14   R(14,-1)               -2.6386         Frozen                          !
 ! Y14   R(14,-2)                1.6052         Frozen                          !
 ! Z14   R(14,-3)                2.6993         Frozen                          !
 ! X27   R(27,-1)                4.2452         Frozen                          !
 ! Y27   R(27,-2)               -3.4475         Frozen                          !
 ! Z27   R(27,-3)               -0.1738         Frozen                          !
 ! R1    R(1,2)                  1.0894         D2E/DX2 =    0.3479             !
 ! R2    R(1,3)                  1.5286         D2E/DX2 =    0.2687             !
 ! R3    R(1,53)                 1.0905         D2E/DX2 =    0.3453             !
 ! R4    R(1,54)                 1.0908         D2E/DX2 =    0.3446             !
 ! R5    R(3,4)                  1.0943         D2E/DX2 =    0.334              !
 ! R6    R(3,5)                  1.0919         D2E/DX2 =    0.3454             !
 ! R7    R(3,7)                  1.4959         D2E/DX2 =    0.3181             !
 ! R8    R(6,7)                  1.382          D2E/DX2 =    0.2825             !
 ! R9    R(6,8)                  1.3253         D2E/DX2 =    0.4177             !
 ! R10   R(6,43)                 2.1043         D2E/DX2 =    0.0819             !
 ! R11   R(7,12)                 1.3668         D2E/DX2 =    0.4171             !
 ! R12   R(8,9)                  1.0796         D2E/DX2 =    0.3757             !
 ! R13   R(8,10)                 1.3345         D2E/DX2 =    0.4023             !
 ! R14   R(10,11)                1.0283         D2E/DX2 =    0.3997             !
 ! R15   R(10,12)                1.3721         D2E/DX2 =    0.3571             !
 ! R16   R(11,84)                1.7959         D2E/DX2 =    0.0207             !
 ! R17   R(12,13)                1.0753         D2E/DX2 =    0.3856             !
 ! R18   R(14,15)                1.0913         D2E/DX2 =    0.3435             !
 ! R19   R(14,16)                1.5331         D2E/DX2 =    0.2646             !
 ! R20   R(14,55)                1.0882         D2E/DX2 =    0.3517             !
 ! R21   R(14,56)                1.0924         D2E/DX2 =    0.3409             !
 ! R22   R(16,17)                1.0945         D2E/DX2 =    0.3344             !
 ! R23   R(16,18)                1.095          D2E/DX2 =    0.3361             !
 ! R24   R(16,20)                1.497          D2E/DX2 =    0.3101             !
 ! R25   R(19,20)                1.3904         D2E/DX2 =    0.2784             !
 ! R26   R(19,21)                1.3223         D2E/DX2 =    0.4545             !
 ! R27   R(19,43)                2.086          D2E/DX2 =    0.0908             !
 ! R28   R(20,25)                1.3627         D2E/DX2 =    0.4362             !
 ! R29   R(21,22)                1.0771         D2E/DX2 =    0.3823             !
 ! R30   R(21,23)                1.3359         D2E/DX2 =    0.4292             !
 ! R31   R(23,24)                1.0091         D2E/DX2 =    0.476              !
 ! R32   R(23,25)                1.3754         D2E/DX2 =    0.3606             !
 ! R33   R(25,26)                1.0749         D2E/DX2 =    0.387              !
 ! R34   R(27,28)                1.0873         D2E/DX2 =    0.353              !
 ! R35   R(27,29)                1.5417         D2E/DX2 =    0.2638             !
 ! R36   R(27,40)                1.5116         D2E/DX2 =    0.2819             !
 ! R37   R(27,57)                1.0918         D2E/DX2 =    0.3429             !
 ! R38   R(29,30)                1.0901         D2E/DX2 =    0.3503             !
 ! R39   R(29,31)                1.0902         D2E/DX2 =    0.3443             !
 ! R40   R(29,33)                1.4953         D2E/DX2 =    0.3005             !
 ! R41   R(32,33)                1.3877         D2E/DX2 =    0.2761             !
 ! R42   R(32,34)                1.324          D2E/DX2 =    0.4517             !
 ! R43   R(32,43)                2.1125         D2E/DX2 =    0.0934             !
 ! R44   R(33,38)                1.363          D2E/DX2 =    0.4341             !
 ! R45   R(34,35)                1.077          D2E/DX2 =    0.3829             !
 ! R46   R(34,36)                1.3357         D2E/DX2 =    0.4278             !
 ! R47   R(36,37)                1.0099         D2E/DX2 =    0.4736             !
 ! R48   R(36,38)                1.37           D2E/DX2 =    0.3671             !
 ! R49   R(38,39)                1.0756         D2E/DX2 =    0.3843             !
 ! R50   R(40,41)                1.2072         D2E/DX2 =    0.8581             !
 ! R51   R(40,42)                1.3336         D2E/DX2 =    0.4158             !
 ! R52   R(42,51)                0.9924         D2E/DX2 =    0.418              !
 ! R53   R(43,47)                2.113          D2E/DX2 =    0.0763             !
 ! R54   R(44,45)                0.9668         D2E/DX2 =    0.5297             !
 ! R55   R(44,46)                0.9745         D2E/DX2 =    0.4864             !
 ! R56   R(44,48)                1.6375         D2E/DX2 =    0.0296             !
 ! R57   R(47,48)                1.0054         D2E/DX2 =    0.4042             !
 ! R58   R(47,68)                1.4136         D2E/DX2 =    0.2761             !
 ! R59   R(49,50)                1.0003         D2E/DX2 =    0.3987             !
 ! R60   R(49,69)                1.6191         D2E/DX2 =    0.0293             !
 ! R61   R(50,51)                1.6851         D2E/DX2 =    0.0231             !
 ! R62   R(50,52)                0.9635         D2E/DX2 =    0.544              !
 ! R63   R(58,59)                1.4127         D2E/DX2 =    0.3571             !
 ! R64   R(58,63)                1.397          D2E/DX2 =    0.3883             !
 ! R65   R(58,67)                1.3275         D2E/DX2 =    0.4665             !
 ! R66   R(59,60)                1.3777         D2E/DX2 =    0.4276             !
 ! R67   R(59,64)                1.0803         D2E/DX2 =    0.3722             !
 ! R68   R(60,61)                1.406          D2E/DX2 =    0.3769             !
 ! R69   R(60,65)                1.0826         D2E/DX2 =    0.3671             !
 ! R70   R(61,62)                1.3984         D2E/DX2 =    0.3211             !
 ! R71   R(61,77)                1.4489         D2E/DX2 =    0.3334             !
 ! R72   R(62,63)                1.3846         D2E/DX2 =    0.4119             !
 ! R73   R(62,83)                1.3651         D2E/DX2 =    0.3541             !
 ! R74   R(63,66)                1.083          D2E/DX2 =    0.3669             !
 ! R75   R(67,68)                1.7997         D2E/DX2 =    0.0556             !
 ! R76   R(67,89)                1.7026         D2E/DX2 =    0.0218             !
 ! R77   R(68,69)                1.2458         D2E/DX2 =    0.6364             !
 ! R78   R(68,70)                1.5061         D2E/DX2 =    0.3033             !
 ! R79   R(70,71)                1.0904         D2E/DX2 =    0.3512             !
 ! R80   R(70,72)                1.0876         D2E/DX2 =    0.3538             !
 ! R81   R(70,73)                1.0882         D2E/DX2 =    0.3535             !
 ! R82   R(74,75)                1.448          D2E/DX2 =    0.3104             !
 ! R83   R(74,82)                1.2087         D2E/DX2 =    0.8295             !
 ! R84   R(74,83)                1.3689         D2E/DX2 =    0.3114             !
 ! R85   R(75,76)                1.0809         D2E/DX2 =    0.3702             !
 ! R86   R(75,77)                1.35           D2E/DX2 =    0.5067             !
 ! R87   R(77,78)                1.4961         D2E/DX2 =    0.3142             !
 ! R88   R(78,79)                1.0917         D2E/DX2 =    0.3432             !
 ! R89   R(78,80)                1.0916         D2E/DX2 =    0.3437             !
 ! R90   R(78,81)                1.0874         D2E/DX2 =    0.3531             !
 ! R91   R(84,85)                0.9815         D2E/DX2 =    0.4634             !
 ! R92   R(84,86)                0.9619         D2E/DX2 =    0.5487             !
 ! R93   R(85,87)                1.7403         D2E/DX2 =    0.0222             !
 ! R94   R(87,88)                0.9618         D2E/DX2 =    0.5488             !
 ! R95   R(87,89)                0.9855         D2E/DX2 =    0.4454             !
 ! A1    A(2,1,3)              110.4696         D2E/DX2 =    0.1025             !
 ! A2    A(2,1,53)             108.5342         D2E/DX2 =    0.0502             !
 ! A3    A(2,1,54)             107.8055         D2E/DX2 =    0.0507             !
 ! A4    A(3,1,53)             110.7521         D2E/DX2 =    0.1036             !
 ! A5    A(3,1,54)             110.9803         D2E/DX2 =    0.1051             !
 ! A6    A(53,1,54)            108.1983         D2E/DX2 =    0.051              !
 ! A7    A(1,3,4)              109.8092         D2E/DX2 =    0.0572             !
 ! A8    A(1,3,5)              110.2056         D2E/DX2 =    0.0579             !
 ! A9    A(1,3,7)              112.9316         D2E/DX2 =    0.1488             !
 ! A10   A(4,3,5)              105.7967         D2E/DX2 =    0.0209             !
 ! A11   A(4,3,7)              108.9866         D2E/DX2 =    0.0515             !
 ! A12   A(5,3,7)              108.853          D2E/DX2 =    0.0564             !
 ! A13   A(7,6,8)              106.8084         D2E/DX2 =    0.0943             !
 ! A14   A(7,6,43)             131.434          D2E/DX2 =    0.049              !
 ! A15   A(8,6,43)             120.8118         D2E/DX2 =    0.0522             !
 ! A16   A(3,7,6)              122.8086         D2E/DX2 =    0.0882             !
 ! A17   A(3,7,12)             129.0363         D2E/DX2 =    0.0893             !
 ! A18   A(6,7,12)             108.1176         D2E/DX2 =    0.0995             !
 ! A19   A(6,8,9)              125.6841         D2E/DX2 =    0.0865             !
 ! A20   A(6,8,10)             110.5377         D2E/DX2 =    0.1025             !
 ! A21   A(9,8,10)             123.7708         D2E/DX2 =    0.0874             !
 ! A22   A(8,10,11)            122.9906         D2E/DX2 =    0.066              !
 ! A23   A(8,10,12)            108.0505         D2E/DX2 =    0.1006             !
 ! A24   A(11,10,12)           128.9563         D2E/DX2 =    0.0671             !
 ! A25   A(7,12,10)            106.4831         D2E/DX2 =    0.0976             !
 ! A26   A(7,12,13)            131.4779         D2E/DX2 =    0.0741             !
 ! A27   A(10,12,13)           122.0387         D2E/DX2 =    0.0823             !
 ! A28   A(15,14,16)           110.962          D2E/DX2 =    0.103              !
 ! A29   A(15,14,55)           108.3979         D2E/DX2 =    0.0503             !
 ! A30   A(15,14,56)           108.3107         D2E/DX2 =    0.0507             !
 ! A31   A(16,14,55)           110.301          D2E/DX2 =    0.1016             !
 ! A32   A(16,14,56)           110.7831         D2E/DX2 =    0.1027             !
 ! A33   A(55,14,56)           107.9904         D2E/DX2 =    0.0498             !
 ! A34   A(14,16,17)           109.6615         D2E/DX2 =    0.0562             !
 ! A35   A(14,16,18)           110.0128         D2E/DX2 =    0.0603             !
 ! A36   A(14,16,20)           112.8841         D2E/DX2 =    0.1695             !
 ! A37   A(17,16,18)           106.5413         D2E/DX2 =    0.0213             !
 ! A38   A(17,16,20)           109.1336         D2E/DX2 =    0.0536             !
 ! A39   A(18,16,20)           108.4001         D2E/DX2 =    0.0551             !
 ! A40   A(20,19,21)           107.026          D2E/DX2 =    0.1012             !
 ! A41   A(20,19,43)           131.8621         D2E/DX2 =    0.1269             !
 ! A42   A(21,19,43)           121.0763         D2E/DX2 =    0.1161             !
 ! A43   A(16,20,19)           124.1254         D2E/DX2 =    0.1235             !
 ! A44   A(16,20,25)           127.9255         D2E/DX2 =    0.1297             !
 ! A45   A(19,20,25)           107.944          D2E/DX2 =    0.1027             !
 ! A46   A(19,21,22)           125.6651         D2E/DX2 =    0.089              !
 ! A47   A(19,21,23)           110.2701         D2E/DX2 =    0.1075             !
 ! A48   A(22,21,23)           124.0472         D2E/DX2 =    0.0885             !
 ! A49   A(21,23,24)           125.4848         D2E/DX2 =    0.0815             !
 ! A50   A(21,23,25)           108.2865         D2E/DX2 =    0.1024             !
 ! A51   A(24,23,25)           126.2267         D2E/DX2 =    0.08               !
 ! A52   A(20,25,23)           106.4732         D2E/DX2 =    0.1017             !
 ! A53   A(20,25,26)           131.526          D2E/DX2 =    0.0754             !
 ! A54   A(23,25,26)           121.9997         D2E/DX2 =    0.0836             !
 ! A55   A(28,27,29)           110.9047         D2E/DX2 =    0.0513             !
 ! A56   A(28,27,40)           108.4236         D2E/DX2 =    0.0431             !
 ! A57   A(28,27,57)           109.4046         D2E/DX2 =    0.0202             !
 ! A58   A(29,27,40)           108.9645         D2E/DX2 =    0.1234             !
 ! A59   A(29,27,57)           109.3561         D2E/DX2 =    0.0476             !
 ! A60   A(40,27,57)           109.7701         D2E/DX2 =    0.0469             !
 ! A61   A(27,29,30)           109.9112         D2E/DX2 =    0.0545             !
 ! A62   A(27,29,31)           108.5564         D2E/DX2 =    0.0536             !
 ! A63   A(27,29,33)           112.8317         D2E/DX2 =    0.104              !
 ! A64   A(30,29,31)           106.6931         D2E/DX2 =    0.0192             !
 ! A65   A(30,29,33)           109.4048         D2E/DX2 =    0.0462             !
 ! A66   A(31,29,33)           109.2517         D2E/DX2 =    0.0494             !
 ! A67   A(33,32,34)           106.5565         D2E/DX2 =    0.1                !
 ! A68   A(33,32,43)           136.1255         D2E/DX2 =    0.0502             !
 ! A69   A(34,32,43)           117.1781         D2E/DX2 =    0.0802             !
 ! A70   A(29,33,32)           124.3891         D2E/DX2 =    0.0763             !
 ! A71   A(29,33,38)           127.3063         D2E/DX2 =    0.0903             !
 ! A72   A(32,33,38)           108.302          D2E/DX2 =    0.1006             !
 ! A73   A(32,34,35)           126.0718         D2E/DX2 =    0.0863             !
 ! A74   A(32,34,36)           110.4703         D2E/DX2 =    0.1061             !
 ! A75   A(35,34,36)           123.4508         D2E/DX2 =    0.0875             !
 ! A76   A(34,36,37)           125.4523         D2E/DX2 =    0.0818             !
 ! A77   A(34,36,38)           108.2997         D2E/DX2 =    0.1027             !
 ! A78   A(37,36,38)           126.2435         D2E/DX2 =    0.0804             !
 ! A79   A(33,38,36)           106.3706         D2E/DX2 =    0.1005             !
 ! A80   A(33,38,39)           131.2102         D2E/DX2 =    0.0748             !
 ! A81   A(36,38,39)           122.4183         D2E/DX2 =    0.0823             !
 ! A82   A(27,40,41)           123.9355         D2E/DX2 =    0.1546             !
 ! A83   A(27,40,42)           116.3012         D2E/DX2 =    0.1232             !
 ! A84   A(41,40,42)           119.6786         D2E/DX2 =    0.1922             !
 ! A85   A(40,42,51)           114.5404         D2E/DX2 =    0.1224             !
 ! A86   A(6,43,19)            100.1318         D2E/DX2 =    0.0231             !
 ! A87   A(6,43,32)            110.346          D2E/DX2 =    0.0158             !
 ! A88   A(6,43,47)             93.2117         D2E/DX2 =    0.0166             !
 ! A89   A(19,43,32)           137.37           D2E/DX2 =    0.0472             !
 ! A90   A(19,43,47)            99.9986         D2E/DX2 =    0.0329             !
 ! A91   A(32,43,47)           107.0759         D2E/DX2 =    0.0306             !
 ! A92   A(45,44,46)           106.0762         D2E/DX2 =    0.0469             !
 ! A93   A(45,44,48)           112.1549         D2E/DX2 =    0.0315             !
 ! A94   A(46,44,48)            99.5842         D2E/DX2 =    0.058              !
 ! A95   A(43,47,48)           109.0568         D2E/DX2 =    0.104              !
 ! A96   A(43,47,68)           133.8956         D2E/DX2 =    0.0787             !
 ! A97   A(48,47,68)           109.8809         D2E/DX2 =    0.1496             !
 ! A98   A(49,50,51)           117.6975         D2E/DX2 =    0.0299             !
 ! A99   A(49,50,52)           107.7855         D2E/DX2 =    0.0559             !
 ! A100  A(51,50,52)           117.0446         D2E/DX2 =    0.0199             !
 ! A101  A(59,58,63)           118.9207         D2E/DX2 =    0.0872             !
 ! A102  A(59,58,67)           120.9343         D2E/DX2 =    0.1606             !
 ! A103  A(63,58,67)           120.1284         D2E/DX2 =    0.169              !
 ! A104  A(58,59,60)           120.3595         D2E/DX2 =    0.0831             !
 ! A105  A(58,59,64)           118.42           D2E/DX2 =    0.0781             !
 ! A106  A(60,59,64)           121.2154         D2E/DX2 =    0.0781             !
 ! A107  A(59,60,61)           121.3559         D2E/DX2 =    0.0811             !
 ! A108  A(59,60,65)           119.4978         D2E/DX2 =    0.0835             !
 ! A109  A(61,60,65)           119.1463         D2E/DX2 =    0.0824             !
 ! A110  A(60,61,62)           117.3551         D2E/DX2 =    0.0827             !
 ! A111  A(60,61,77)           124.3987         D2E/DX2 =    0.1078             !
 ! A112  A(62,61,77)           118.2405         D2E/DX2 =    0.0811             !
 ! A113  A(61,62,63)           122.2557         D2E/DX2 =    0.0833             !
 ! A114  A(61,62,83)           121.213          D2E/DX2 =    0.093              !
 ! A115  A(63,62,83)           116.5227         D2E/DX2 =    0.1202             !
 ! A116  A(58,63,62)           119.6961         D2E/DX2 =    0.0819             !
 ! A117  A(58,63,66)           120.6466         D2E/DX2 =    0.0756             !
 ! A118  A(62,63,66)           119.657          D2E/DX2 =    0.0777             !
 ! A119  A(58,67,68)           113.2967         D2E/DX2 =    0.1621             !
 ! A120  A(58,67,89)           119.0103         D2E/DX2 =    0.0674             !
 ! A121  A(68,67,89)           124.3764         D2E/DX2 =    0.0342             !
 ! A122  A(47,68,67)            98.7071         D2E/DX2 =    0.0506             !
 ! A123  A(47,68,69)           115.974          D2E/DX2 =    0.0555             !
 ! A124  A(47,68,70)           111.7487         D2E/DX2 =    0.0622             !
 ! A125  A(67,68,69)           108.6447         D2E/DX2 =    0.0302             !
 ! A126  A(67,68,70)            95.9211         D2E/DX2 =    0.0544             !
 ! A127  A(69,68,70)           121.0321         D2E/DX2 =    0.058              !
 ! A128  A(49,69,68)           122.048          D2E/DX2 =    0.0677             !
 ! A129  A(68,70,71)           108.8237         D2E/DX2 =    0.1045             !
 ! A130  A(68,70,72)           108.2208         D2E/DX2 =    0.1011             !
 ! A131  A(68,70,73)           112.324          D2E/DX2 =    0.1078             !
 ! A132  A(71,70,72)           108.6418         D2E/DX2 =    0.0459             !
 ! A133  A(71,70,73)           109.0147         D2E/DX2 =    0.0506             !
 ! A134  A(72,70,73)           109.7445         D2E/DX2 =    0.0505             !
 ! A135  A(75,74,82)           125.86           D2E/DX2 =    0.1456             !
 ! A136  A(75,74,83)           117.0457         D2E/DX2 =    0.0977             !
 ! A137  A(82,74,83)           117.0939         D2E/DX2 =    0.179              !
 ! A138  A(74,75,76)           115.6738         D2E/DX2 =    0.0815             !
 ! A139  A(74,75,77)           122.3325         D2E/DX2 =    0.0848             !
 ! A140  A(76,75,77)           121.9935         D2E/DX2 =    0.08               !
 ! A141  A(61,77,75)           118.8002         D2E/DX2 =    0.0805             !
 ! A142  A(61,77,78)           119.6709         D2E/DX2 =    0.1369             !
 ! A143  A(75,77,78)           121.5286         D2E/DX2 =    0.1363             !
 ! A144  A(77,78,79)           110.4093         D2E/DX2 =    0.1016             !
 ! A145  A(77,78,80)           110.4431         D2E/DX2 =    0.1014             !
 ! A146  A(77,78,81)           110.8348         D2E/DX2 =    0.1108             !
 ! A147  A(79,78,80)           107.4144         D2E/DX2 =    0.0534             !
 ! A148  A(79,78,81)           108.7924         D2E/DX2 =    0.0553             !
 ! A149  A(80,78,81)           108.8583         D2E/DX2 =    0.0553             !
 ! A150  A(62,83,74)           122.3597         D2E/DX2 =    0.1085             !
 ! A151  A(11,84,85)           104.269          D2E/DX2 =    0.0209             !
 ! A152  A(11,84,86)           121.7701         D2E/DX2 =    0.0085             !
 ! A153  A(85,84,86)           106.4915         D2E/DX2 =    0.0317             !
 ! A154  A(84,85,87)           171.7479         D2E/DX2 =    0.0233             !
 ! A155  A(85,87,88)           122.6263         D2E/DX2 =    0.0213             !
 ! A156  A(85,87,89)           120.6602         D2E/DX2 =    0.0215             !
 ! A157  A(88,87,89)           106.9198         D2E/DX2 =    0.0512             !
 ! A158  A(67,89,87)           175.1146         D2E/DX2 =    0.0293             !
 ! A159  L(10,11,84,55,-1)     180.0508         D2E/DX2 =    0.0191             !
 ! A160  L(44,48,47,14,-1)     179.8785         D2E/DX2 =    0.1668             !
 ! A161  L(50,49,69,2,-1)      170.911          D2E/DX2 =    0.0448             !
 ! A162  L(42,51,50,6,-1)      177.3033         D2E/DX2 =    0.0315             !
 ! A163  L(10,11,84,55,-2)     203.4579         D2E/DX2 =    0.0319             !
 ! A164  L(44,48,47,14,-2)     172.5208         D2E/DX2 =    0.1221             !
 ! A165  L(50,49,69,2,-2)      182.0056         D2E/DX2 =    0.0358             !
 ! A166  L(42,51,50,6,-2)      190.2656         D2E/DX2 =    0.0408             !
 ! D1    D(2,1,3,4)             58.716          D2E/DX2 =    0.0144             !
 ! D2    D(2,1,3,5)            -57.4447         D2E/DX2 =    0.0146             !
 ! D3    D(2,1,3,7)           -179.4221         D2E/DX2 =    0.0141             !
 ! D4    D(53,1,3,4)           178.999          D2E/DX2 =    0.0142             !
 ! D5    D(53,1,3,5)            62.8384         D2E/DX2 =    0.0151             !
 ! D6    D(53,1,3,7)           -59.139          D2E/DX2 =    0.0139             !
 ! D7    D(54,1,3,4)           -60.8031         D2E/DX2 =    0.0149             !
 ! D8    D(54,1,3,5)          -176.9638         D2E/DX2 =    0.0146             !
 ! D9    D(54,1,3,7)            61.0589         D2E/DX2 =    0.0144             !
 ! D10   D(1,3,7,6)            152.228          D2E/DX2 =    0.014              !
 ! D11   D(1,3,7,12)           -30.274          D2E/DX2 =    0.0121             !
 ! D12   D(4,3,7,6)            -85.4482         D2E/DX2 =    0.0135             !
 ! D13   D(4,3,7,12)            92.0498         D2E/DX2 =    0.0126             !
 ! D14   D(5,3,7,6)             29.4933         D2E/DX2 =    0.014              !
 ! D15   D(5,3,7,12)          -153.0087         D2E/DX2 =    0.0133             !
 ! D16   D(8,6,7,3)            177.4364         D2E/DX2 =    0.008              !
 ! D17   D(8,6,7,12)            -0.5191         D2E/DX2 =    0.0096             !
 ! D18   D(43,6,7,3)             8.8155         D2E/DX2 =    0.0041             !
 ! D19   D(43,6,7,12)         -169.14           D2E/DX2 =    0.005              !
 ! D20   D(7,6,8,9)           -178.707          D2E/DX2 =    0.0077             !
 ! D21   D(7,6,8,10)             0.329          D2E/DX2 =    0.0111             !
 ! D22   D(43,6,8,9)            -8.6245         D2E/DX2 =    0.0055             !
 ! D23   D(43,6,8,10)          170.4116         D2E/DX2 =    0.0082             !
 ! D24   D(7,6,43,19)           62.4476         D2E/DX2 =    0.031              !
 ! D25   D(7,6,43,32)          -87.2525         D2E/DX2 =    0.0176             !
 ! D26   D(7,6,43,47)          163.2067         D2E/DX2 =    0.015              !
 ! D27   D(8,6,43,19)         -104.8486         D2E/DX2 =    0.0354             !
 ! D28   D(8,6,43,32)          105.4512         D2E/DX2 =    0.021              !
 ! D29   D(8,6,43,47)           -4.0896         D2E/DX2 =    0.0147             !
 ! D30   D(3,7,12,10)         -177.2802         D2E/DX2 =    0.0098             !
 ! D31   D(3,7,12,13)            2.5544         D2E/DX2 =    0.0056             !
 ! D32   D(6,7,12,10)            0.5074         D2E/DX2 =    0.0114             !
 ! D33   D(6,7,12,13)         -179.658          D2E/DX2 =    0.006              !
 ! D34   D(6,8,10,11)          179.443          D2E/DX2 =    0.0081             !
 ! D35   D(6,8,10,12)           -0.0141         D2E/DX2 =    0.0142             !
 ! D36   D(9,8,10,11)           -1.4989         D2E/DX2 =    0.0055             !
 ! D37   D(9,8,10,12)          179.0439         D2E/DX2 =    0.0077             !
 ! D38   D(8,10,84,85)         -20.4836         D2E/DX2 =    0.0177             !
 ! D39   D(8,10,84,86)          94.2417         D2E/DX2 =    0.0094             !
 ! D40   D(12,10,84,85)        154.4109         D2E/DX2 =    0.0249             !
 ! D41   D(12,10,84,86)        -90.8638         D2E/DX2 =    0.0095             !
 ! D42   D(8,10,12,7)           -0.3097         D2E/DX2 =    0.0138             !
 ! D43   D(8,10,12,13)         179.8365         D2E/DX2 =    0.0062             !
 ! D44   D(11,10,12,7)        -179.7241         D2E/DX2 =    0.0081             !
 ! D45   D(11,10,12,13)          0.4221         D2E/DX2 =    0.0044             !
 ! D46   D(15,14,16,17)        -63.1912         D2E/DX2 =    0.015              !
 ! D47   D(15,14,16,18)        179.9434         D2E/DX2 =    0.0146             !
 ! D48   D(15,14,16,20)         58.7204         D2E/DX2 =    0.0147             !
 ! D49   D(55,14,16,17)         56.9471         D2E/DX2 =    0.0146             !
 ! D50   D(55,14,16,18)        -59.9183         D2E/DX2 =    0.0145             !
 ! D51   D(55,14,16,20)        178.8587         D2E/DX2 =    0.0147             !
 ! D52   D(56,14,16,17)        176.4609         D2E/DX2 =    0.0145             !
 ! D53   D(56,14,16,18)         59.5954         D2E/DX2 =    0.0149             !
 ! D54   D(56,14,16,20)        -61.6276         D2E/DX2 =    0.0144             !
 ! D55   D(14,16,20,19)        172.396          D2E/DX2 =    0.018              !
 ! D56   D(14,16,20,25)         -6.6759         D2E/DX2 =    0.0122             !
 ! D57   D(17,16,20,19)        -65.3957         D2E/DX2 =    0.0143             !
 ! D58   D(17,16,20,25)        115.5325         D2E/DX2 =    0.0135             !
 ! D59   D(18,16,20,19)         50.2625         D2E/DX2 =    0.0159             !
 ! D60   D(18,16,20,25)       -128.8093         D2E/DX2 =    0.0128             !
 ! D61   D(21,19,20,16)       -179.2648         D2E/DX2 =    0.0097             !
 ! D62   D(21,19,20,25)         -0.0343         D2E/DX2 =    0.0097             !
 ! D63   D(43,19,20,16)          2.9506         D2E/DX2 =    0.0032             !
 ! D64   D(43,19,20,25)       -177.819          D2E/DX2 =    0.0051             !
 ! D65   D(20,19,21,22)        178.4546         D2E/DX2 =    0.0067             !
 ! D66   D(20,19,21,23)         -0.0676         D2E/DX2 =    0.0114             !
 ! D67   D(43,19,21,22)         -3.4717         D2E/DX2 =    0.0047             !
 ! D68   D(43,19,21,23)        178.0061         D2E/DX2 =    0.0064             !
 ! D69   D(20,19,43,6)          34.1791         D2E/DX2 =    0.0174             !
 ! D70   D(20,19,43,32)        169.8746         D2E/DX2 =    0.0195             !
 ! D71   D(20,19,43,47)        -60.944          D2E/DX2 =    0.0218             !
 ! D72   D(21,19,43,6)        -143.3475         D2E/DX2 =    0.0113             !
 ! D73   D(21,19,43,32)         -7.652          D2E/DX2 =    0.0108             !
 ! D74   D(21,19,43,47)        121.5294         D2E/DX2 =    0.0148             !
 ! D75   D(16,20,25,23)        179.3106         D2E/DX2 =    0.011              !
 ! D76   D(16,20,25,26)         -0.3031         D2E/DX2 =    0.0062             !
 ! D77   D(19,20,25,23)          0.1182         D2E/DX2 =    0.0111             !
 ! D78   D(19,20,25,26)       -179.4955         D2E/DX2 =    0.0062             !
 ! D79   D(19,21,23,24)        179.654          D2E/DX2 =    0.0066             !
 ! D80   D(19,21,23,25)          0.1433         D2E/DX2 =    0.0144             !
 ! D81   D(22,21,23,24)          1.103          D2E/DX2 =    0.0052             !
 ! D82   D(22,21,23,25)       -178.4076         D2E/DX2 =    0.0075             !
 ! D83   D(21,23,25,20)         -0.1597         D2E/DX2 =    0.0137             !
 ! D84   D(21,23,25,26)        179.4993         D2E/DX2 =    0.0069             !
 ! D85   D(24,23,25,20)       -179.6658         D2E/DX2 =    0.006              !
 ! D86   D(24,23,25,26)         -0.0068         D2E/DX2 =    0.0041             !
 ! D87   D(28,27,29,30)        177.2057         D2E/DX2 =    0.0157             !
 ! D88   D(28,27,29,31)         60.8557         D2E/DX2 =    0.0148             !
 ! D89   D(28,27,29,33)        -60.3892         D2E/DX2 =    0.0163             !
 ! D90   D(40,27,29,30)        -63.5207         D2E/DX2 =    0.0161             !
 ! D91   D(40,27,29,31)       -179.8708         D2E/DX2 =    0.017              !
 ! D92   D(40,27,29,33)         58.8843         D2E/DX2 =    0.0211             !
 ! D93   D(57,27,29,30)         56.4663         D2E/DX2 =    0.0151             !
 ! D94   D(57,27,29,31)        -59.8837         D2E/DX2 =    0.0153             !
 ! D95   D(57,27,29,33)        178.8714         D2E/DX2 =    0.0196             !
 ! D96   D(28,27,40,41)          8.6531         D2E/DX2 =    0.02               !
 ! D97   D(28,27,40,42)       -174.7127         D2E/DX2 =    0.0233             !
 ! D98   D(29,27,40,41)       -112.1538         D2E/DX2 =    0.0179             !
 ! D99   D(29,27,40,42)         64.4804         D2E/DX2 =    0.022              !
 ! D100  D(57,27,40,41)        128.1154         D2E/DX2 =    0.0161             !
 ! D101  D(57,27,40,42)        -55.2504         D2E/DX2 =    0.0205             !
 ! D102  D(27,29,33,32)       -100.4053         D2E/DX2 =    0.0193             !
 ! D103  D(27,29,33,38)         78.9457         D2E/DX2 =    0.016              !
 ! D104  D(30,29,33,32)         22.2832         D2E/DX2 =    0.0162             !
 ! D105  D(30,29,33,38)       -158.3657         D2E/DX2 =    0.0166             !
 ! D106  D(31,29,33,32)        138.7453         D2E/DX2 =    0.015              !
 ! D107  D(31,29,33,38)        -41.9036         D2E/DX2 =    0.0142             !
 ! D108  D(34,32,33,29)        179.6323         D2E/DX2 =    0.0097             !
 ! D109  D(34,32,33,38)          0.1759         D2E/DX2 =    0.0099             !
 ! D110  D(43,32,33,29)         -5.0006         D2E/DX2 =    0.0064             !
 ! D111  D(43,32,33,38)        175.543          D2E/DX2 =    0.0065             !
 ! D112  D(33,32,34,35)        178.765          D2E/DX2 =    0.0064             !
 ! D113  D(33,32,34,36)         -0.293          D2E/DX2 =    0.0114             !
 ! D114  D(43,32,34,35)          2.373          D2E/DX2 =    0.0049             !
 ! D115  D(43,32,34,36)       -176.685          D2E/DX2 =    0.0079             !
 ! D116  D(33,32,43,6)        -139.2285         D2E/DX2 =    0.0117             !
 ! D117  D(33,32,43,19)         87.9379         D2E/DX2 =    0.0099             !
 ! D118  D(33,32,43,47)        -39.0673         D2E/DX2 =    0.0118             !
 ! D119  D(34,32,43,6)          35.7786         D2E/DX2 =    0.0097             !
 ! D120  D(34,32,43,19)        -97.055          D2E/DX2 =    0.0081             !
 ! D121  D(34,32,43,47)        135.9398         D2E/DX2 =    0.0116             !
 ! D122  D(29,33,38,36)       -179.4346         D2E/DX2 =    0.0108             !
 ! D123  D(29,33,38,39)          0.9006         D2E/DX2 =    0.0061             !
 ! D124  D(32,33,38,36)          0.0014         D2E/DX2 =    0.0114             !
 ! D125  D(32,33,38,39)       -179.6634         D2E/DX2 =    0.0063             !
 ! D126  D(32,34,36,37)        179.5663         D2E/DX2 =    0.0067             !
 ! D127  D(32,34,36,38)          0.3            D2E/DX2 =    0.0145             !
 ! D128  D(35,34,36,37)          0.4788         D2E/DX2 =    0.0053             !
 ! D129  D(35,34,36,38)       -178.7874         D2E/DX2 =    0.0073             !
 ! D130  D(34,36,38,33)         -0.1783         D2E/DX2 =    0.0137             !
 ! D131  D(34,36,38,39)        179.523          D2E/DX2 =    0.0069             !
 ! D132  D(37,36,38,33)       -179.4372         D2E/DX2 =    0.0062             !
 ! D133  D(37,36,38,39)          0.2641         D2E/DX2 =    0.0044             !
 ! D134  D(27,40,42,51)          7.3981         D2E/DX2 =    0.0179             !
 ! D135  D(41,40,42,51)       -175.8159         D2E/DX2 =    0.0217             !
 ! D136  D(40,42,50,49)        -69.9695         D2E/DX2 =    0.0261             !
 ! D137  D(40,42,50,52)         64.7971         D2E/DX2 =    0.0168             !
 ! D138  D(6,43,47,48)        -114.9945         D2E/DX2 =    0.0191             !
 ! D139  D(6,43,47,68)          98.7367         D2E/DX2 =    0.0165             !
 ! D140  D(19,43,47,48)        -14.1117         D2E/DX2 =    0.0235             !
 ! D141  D(19,43,47,68)       -160.3805         D2E/DX2 =    0.0192             !
 ! D142  D(32,43,47,48)        132.5769         D2E/DX2 =    0.0209             !
 ! D143  D(32,43,47,68)        -13.6919         D2E/DX2 =    0.0128             !
 ! D144  D(45,44,47,43)        154.1672         D2E/DX2 =    0.0167             !
 ! D145  D(45,44,47,68)        -52.8598         D2E/DX2 =    0.0124             !
 ! D146  D(46,44,47,43)        -93.581          D2E/DX2 =    0.0206             !
 ! D147  D(46,44,47,68)         59.392          D2E/DX2 =    0.0209             !
 ! D148  D(43,47,68,67)       -133.8077         D2E/DX2 =    0.0189             !
 ! D149  D(43,47,68,69)        110.4468         D2E/DX2 =    0.0223             !
 ! D150  D(43,47,68,70)        -33.819          D2E/DX2 =    0.0217             !
 ! D151  D(48,47,68,67)         80.1187         D2E/DX2 =    0.0319             !
 ! D152  D(48,47,68,69)        -35.6267         D2E/DX2 =    0.0266             !
 ! D153  D(48,47,68,70)       -179.8925         D2E/DX2 =    0.027              !
 ! D154  D(51,50,69,68)        -39.5135         D2E/DX2 =    0.0186             !
 ! D155  D(52,50,69,68)       -176.4546         D2E/DX2 =    0.0146             !
 ! D156  D(63,58,59,60)         -1.8365         D2E/DX2 =    0.0059             !
 ! D157  D(63,58,59,64)        178.978          D2E/DX2 =    0.0068             !
 ! D158  D(67,58,59,60)        176.6839         D2E/DX2 =    0.0116             !
 ! D159  D(67,58,59,64)         -2.5015         D2E/DX2 =    0.0108             !
 ! D160  D(59,58,63,62)          0.8839         D2E/DX2 =    0.0059             !
 ! D161  D(59,58,63,66)       -178.9314         D2E/DX2 =    0.0069             !
 ! D162  D(67,58,63,62)       -177.6488         D2E/DX2 =    0.0137             !
 ! D163  D(67,58,63,66)          2.5359         D2E/DX2 =    0.0098             !
 ! D164  D(59,58,67,68)        -68.3882         D2E/DX2 =    0.0137             !
 ! D165  D(59,58,67,89)        131.2675         D2E/DX2 =    0.0094             !
 ! D166  D(63,58,67,68)        110.1145         D2E/DX2 =    0.021              !
 ! D167  D(63,58,67,89)        -50.2297         D2E/DX2 =    0.0092             !
 ! D168  D(58,59,60,61)          0.5916         D2E/DX2 =    0.0079             !
 ! D169  D(58,59,60,65)       -179.3069         D2E/DX2 =    0.0079             !
 ! D170  D(64,59,60,61)        179.7539         D2E/DX2 =    0.0092             !
 ! D171  D(64,59,60,65)         -0.1446         D2E/DX2 =    0.0086             !
 ! D172  D(59,60,61,62)          1.559          D2E/DX2 =    0.0063             !
 ! D173  D(59,60,61,77)       -179.3274         D2E/DX2 =    0.0067             !
 ! D174  D(65,60,61,62)       -178.5421         D2E/DX2 =    0.0069             !
 ! D175  D(65,60,61,77)          0.5715         D2E/DX2 =    0.0062             !
 ! D176  D(60,61,62,63)         -2.5497         D2E/DX2 =    0.0044             !
 ! D177  D(60,61,62,83)        178.5511         D2E/DX2 =    0.0057             !
 ! D178  D(77,61,62,63)        178.2806         D2E/DX2 =    0.0045             !
 ! D179  D(77,61,62,83)         -0.6187         D2E/DX2 =    0.0038             !
 ! D180  D(60,61,77,75)       -179.2702         D2E/DX2 =    0.0049             !
 ! D181  D(60,61,77,78)          0.9469         D2E/DX2 =    0.0044             !
 ! D182  D(62,61,77,75)         -0.1639         D2E/DX2 =    0.003              !
 ! D183  D(62,61,77,78)       -179.9468         D2E/DX2 =    0.0041             !
 ! D184  D(61,62,63,58)          1.3469         D2E/DX2 =    0.006              !
 ! D185  D(61,62,63,66)       -178.836          D2E/DX2 =    0.0067             !
 ! D186  D(83,62,63,58)       -179.7053         D2E/DX2 =    0.0084             !
 ! D187  D(83,62,63,66)          0.1119         D2E/DX2 =    0.0072             !
 ! D188  D(61,62,83,74)          1.1196         D2E/DX2 =    0.0044             !
 ! D189  D(63,62,83,74)       -177.84           D2E/DX2 =    0.0049             !
 ! D190  D(58,67,68,47)        -59.9824         D2E/DX2 =    0.0423             !
 ! D191  D(58,67,68,69)         61.3018         D2E/DX2 =    0.028              !
 ! D192  D(58,67,68,70)       -173.1082         D2E/DX2 =    0.0261             !
 ! D193  D(89,67,68,47)         99.1374         D2E/DX2 =    0.0246             !
 ! D194  D(89,67,68,69)       -139.5784         D2E/DX2 =    0.0235             !
 ! D195  D(89,67,68,70)        -13.9883         D2E/DX2 =    0.0223             !
 ! D196  D(58,67,89,87)         45.0148         D2E/DX2 =    0.0304             !
 ! D197  D(68,67,89,87)       -113.0029         D2E/DX2 =    0.0094             !
 ! D198  D(47,68,69,49)        -18.1407         D2E/DX2 =    0.0201             !
 ! D199  D(67,68,69,49)       -128.1452         D2E/DX2 =    0.0362             !
 ! D200  D(70,68,69,49)        122.5832         D2E/DX2 =    0.0231             !
 ! D201  D(47,68,70,71)         79.8758         D2E/DX2 =    0.0158             !
 ! D202  D(47,68,70,72)       -162.2354         D2E/DX2 =    0.0158             !
 ! D203  D(47,68,70,73)        -40.927          D2E/DX2 =    0.0163             !
 ! D204  D(67,68,70,71)       -178.281          D2E/DX2 =    0.019              !
 ! D205  D(67,68,70,72)        -60.3922         D2E/DX2 =    0.0194             !
 ! D206  D(67,68,70,73)         60.9162         D2E/DX2 =    0.0192             !
 ! D207  D(69,68,70,71)        -62.337          D2E/DX2 =    0.0137             !
 ! D208  D(69,68,70,72)         55.5518         D2E/DX2 =    0.0136             !
 ! D209  D(69,68,70,73)        176.8602         D2E/DX2 =    0.0137             !
 ! D210  D(82,74,75,76)         -0.1023         D2E/DX2 =    0.0176             !
 ! D211  D(82,74,75,77)        179.7392         D2E/DX2 =    0.015              !
 ! D212  D(83,74,75,76)       -179.872          D2E/DX2 =    0.0095             !
 ! D213  D(83,74,75,77)         -0.0305         D2E/DX2 =    0.0088             !
 ! D214  D(75,74,83,62)         -0.7798         D2E/DX2 =    0.007              !
 ! D215  D(82,74,83,62)        179.4299         D2E/DX2 =    0.013              !
 ! D216  D(74,75,77,61)          0.4806         D2E/DX2 =    0.0051             !
 ! D217  D(74,75,77,78)       -179.7407         D2E/DX2 =    0.0065             !
 ! D218  D(76,75,77,61)       -179.6878         D2E/DX2 =    0.008              !
 ! D219  D(76,75,77,78)          0.0908         D2E/DX2 =    0.0079             !
 ! D220  D(61,77,78,79)        -60.251          D2E/DX2 =    0.0129             !
 ! D221  D(61,77,78,80)         58.4008         D2E/DX2 =    0.0129             !
 ! D222  D(61,77,78,81)        179.1275         D2E/DX2 =    0.0124             !
 ! D223  D(75,77,78,79)        119.9722         D2E/DX2 =    0.012              !
 ! D224  D(75,77,78,80)       -121.376          D2E/DX2 =    0.012              !
 ! D225  D(75,77,78,81)         -0.6493         D2E/DX2 =    0.0129             !
 ! D226  D(11,84,85,87)         -0.7077         D2E/DX2 =    0.0086             !
 ! D227  D(86,84,85,87)       -130.6393         D2E/DX2 =    0.0035             !
 ! D228  D(84,85,87,88)        -84.4511         D2E/DX2 =    0.0098             !
 ! D229  D(84,85,87,89)         56.9217         D2E/DX2 =    0.0088             !
 ! D230  D(85,87,89,67)          4.0007         D2E/DX2 =    0.018              !
 ! D231  D(88,87,89,67)        150.6655         D2E/DX2 =    0.0091             !
 --------------------------------------------------------------------------------
 Trust Radius=1.00D-02 FncErr=1.00D-07 GrdErr=1.00D-06 EigMax=2.50D+02 EigMin=1.00D-04
 Number of steps in this run=    511 maximum allowed number of steps=    534.
 Search for a saddle point of order  1.
 GradGradGradGradGradGradGradGradGradGradGradGradGradGradGradGradGradGrad

 Stoichiometry    C28H43N6O11Zn(1+)
 Framework group  C1[X(C28H43N6O11Zn)]
 Deg. of freedom   261
 Full point group                 C1      NOp   1
 Largest Abelian subgroup         C1      NOp   1
 Largest concise Abelian subgroup C1      NOp   1
                         Standard orientation:                         
 ---------------------------------------------------------------------
 Center     Atomic      Atomic             Coordinates (Angstroms)
 Number     Number       Type             X           Y           Z
 ---------------------------------------------------------------------
      1          6           0        2.834359    5.197390    1.435829
      2          1           0        3.553544    5.329507    2.243316
      3          6           0        2.279315    3.773157    1.442038
      4          1           0        1.799845    3.566187    2.403689
      5          1           0        3.093366    3.050765    1.354196
      6          7           0        1.084183    2.277137   -0.207676
      7          6           0        1.293896    3.526864    0.343901
      8          6           0        0.116252    2.410912   -1.103009
      9          1           0       -0.302700    1.615706   -1.701080
     10          7           0       -0.298424    3.678175   -1.158384
     11          1           0       -1.038965    3.997623   -1.796351
     12          6           0        0.434871    4.405337   -0.254900
     13          1           0        0.284844    5.461109   -0.116508
     14          6           0       -2.667349    1.622985    2.673518
     15          1           0       -2.499614    2.198901    3.585161
     16          6           0       -1.352207    1.393946    1.919707
     17          1           0       -0.939690    2.355439    1.598323
     18          1           0       -1.538072    0.814526    1.009359
     19          7           0        0.883789    0.208305    2.242593
     20          6           0       -0.329576    0.670698    2.739641
     21          6           0        1.510247   -0.387487    3.243102
     22          1           0        2.469051   -0.874475    3.182720
     23          7           0        0.768201   -0.331784    4.352566
     24          1           0        1.024229   -0.718997    5.248601
     25          6           0       -0.400396    0.330767    4.057345
     26          1           0       -1.165113    0.493161    4.795084
     27          6           0        4.245937   -3.439830   -0.109499
     28          1           0        5.320849   -3.558558   -0.221858
     29          6           0        3.683650   -2.481484   -1.178247
     30          1           0        2.599953   -2.412780   -1.082035
     31          1           0        3.884460   -2.903815   -2.163083
     32          7           0        3.655497   -0.020758   -0.507582
     33          6           0        4.277295   -1.111374   -1.098966
     34          6           0        4.489651    1.000359   -0.628290
     35          1           0        4.311498    2.007895   -0.292043
     36          7           0        5.605895    0.620039   -1.255490
     37          1           0        6.389435    1.219359   -1.471886
     38          6           0        5.493658   -0.709862   -1.564907
     39          1           0        6.267073   -1.248595   -2.083007
     40          6           0        3.969507   -2.864300    1.260641
     41          8           0        4.827227   -2.456756    2.006017
     42          8           0        2.686542   -2.755149    1.607859
     43         30           0        1.770247    0.370895    0.361316
     44          8           0       -1.162265   -1.962755    0.910668
     45          1           0       -2.063180   -2.145658    0.611231
     46          1           0       -0.690527   -2.815043    0.883277
     47          8           0        0.326157   -0.629866   -0.812412
     48          1           0       -0.296238   -1.135782   -0.206229
     49          1           0        0.551793   -3.378084   -0.795469
     50          8           0        0.753617   -3.793528    0.091821
     51          1           0        2.050172   -3.172320    0.970752
     52          1           0        0.715517   -4.750226   -0.015674
     53          1           0        3.331630    5.414175    0.489824
     54          1           0        2.036749    5.928013    1.576690
     55          1           0       -3.371306    2.167921    2.047647
     56          1           0       -3.127261    0.671105    2.948653
     57          1           0        3.761449   -4.413462   -0.205680
     58          6           0       -2.247908   -0.856452   -2.038129
     59          6           0       -2.726543   -2.185121   -2.003242
     60          6           0       -3.801544   -2.517322   -1.208286
     61          6           0       -4.457452   -1.552162   -0.424073
     62          6           0       -3.996654   -0.234521   -0.508287
     63          6           0       -2.906063    0.118730   -1.284805
     64          1           0       -2.221782   -2.929317   -2.601885
     65          1           0       -4.149723   -3.542102   -1.183569
     66          1           0       -2.573477    1.149196   -1.304435
     67          8           0       -1.173295   -0.536651   -2.748974
     68          6           0        0.349337   -1.234069   -2.090160
     69          8           0        0.258734   -2.476401   -2.107949
     70          6           0        1.273047   -0.509384   -3.033461
     71          1           0        2.298593   -0.816967   -2.827214
     72          1           0        1.019819   -0.802695   -4.049741
     73          1           0        1.200356    0.571830   -2.933957
     74          6           0       -5.653340    0.547871    1.034730
     75          6           0       -6.137431   -0.813009    1.137208
     76          1           0       -6.975226   -0.963102    1.803439
     77          6           0       -5.583119   -1.830591    0.444625
     78          6           0       -6.101530   -3.229313    0.559820
     79          1           0       -6.437647   -3.592122   -0.413452
     80          1           0       -5.313020   -3.901022    0.904371
     81          1           0       -6.933851   -3.277033    1.257982
     82          8           0       -6.102756    1.505191    1.619890
     83          8           0       -4.594394    0.770346    0.196298
     84          8           0       -2.214300    3.903944   -3.151030
     85          1           0       -1.957731    3.091380   -3.638160
     86          1           0       -3.161597    3.841861   -2.996242
     87          8           0       -1.320374    1.628122   -4.331809
     88          1           0       -0.584774    1.625538   -4.951449
     89          1           0       -1.242754    0.807932   -3.791067
 ---------------------------------------------------------------------
 Rotational constants (GHZ):           0.0867463           0.0523668           0.0480800
 General basis read from cards:  (5D, 7F)
 ======================================================================================================
                                       Pseudopotential Parameters
 ======================================================================================================
  Center     Atomic      Valence      Angular      Power
  Number     Number     Electrons     Momentum     of R      Exponent        Coefficient   SO-Coeffient
 ======================================================================================================
    1          6
                                   No pseudopotential on this center.
    2          1
                                   No pseudopotential on this center.
    3          6
                                   No pseudopotential on this center.
    4          1
                                   No pseudopotential on this center.
    5          1
                                   No pseudopotential on this center.
    6          7
                                   No pseudopotential on this center.
    7          6
                                   No pseudopotential on this center.
    8          6
                                   No pseudopotential on this center.
    9          1
                                   No pseudopotential on this center.
   10          7
                                   No pseudopotential on this center.
   11          1
                                   No pseudopotential on this center.
   12          6
                                   No pseudopotential on this center.
   13          1
                                   No pseudopotential on this center.
   14          6
                                   No pseudopotential on this center.
   15          1
                                   No pseudopotential on this center.
   16          6
                                   No pseudopotential on this center.
   17          1
                                   No pseudopotential on this center.
   18          1
                                   No pseudopotential on this center.
   19          7
                                   No pseudopotential on this center.
   20          6
                                   No pseudopotential on this center.
   21          6
                                   No pseudopotential on this center.
   22          1
                                   No pseudopotential on this center.
   23          7
                                   No pseudopotential on this center.
   24          1
                                   No pseudopotential on this center.
   25          6
                                   No pseudopotential on this center.
   26          1
                                   No pseudopotential on this center.
   27          6
                                   No pseudopotential on this center.
   28          1
                                   No pseudopotential on this center.
   29          6
                                   No pseudopotential on this center.
   30          1
                                   No pseudopotential on this center.
   31          1
                                   No pseudopotential on this center.
   32          7
                                   No pseudopotential on this center.
   33          6
                                   No pseudopotential on this center.
   34          6
                                   No pseudopotential on this center.
   35          1
                                   No pseudopotential on this center.
   36          7
                                   No pseudopotential on this center.
   37          1
                                   No pseudopotential on this center.
   38          6
                                   No pseudopotential on this center.
   39          1
                                   No pseudopotential on this center.
   40          6
                                   No pseudopotential on this center.
   41          8
                                   No pseudopotential on this center.
   42          8
                                   No pseudopotential on this center.
   43         30           12
                                      F and up 
                                                     1      386.7379660      -18.00000000    0.00000000
                                                     2       72.8587359     -124.35274030    0.00000000
                                                     2       15.9066170      -30.66018220    0.00000000
                                                     2        4.3502340      -10.63589890    0.00000000
                                                     2        1.2842199       -0.76836230    0.00000000
                                      S - F
                                                     0       19.0867858        3.00000000    0.00000000
                                                     1        5.0231080       22.52342250    0.00000000
                                                     2        1.2701744       48.44659420    0.00000000
                                                     2        1.0671287      -44.55601190    0.00000000
                                                     2        0.9264190       12.99839580    0.00000000
                                      P - F
                                                     0       43.4927750        5.00000000    0.00000000
                                                     1       20.8692669       20.74355890    0.00000000
                                                     2       21.7118378       90.30271580    0.00000000
                                                     2        6.3616915       74.66103160    0.00000000
                                                     2        1.2291195        9.88944240    0.00000000
                                      D - F
                                                     2       13.5851800       -4.84903590    0.00000000
                                                     2        9.8373050        3.69133790    0.00000000
                                                     2        0.8373113       -0.50373190    0.00000000
   44          8
                                   No pseudopotential on this center.
   45          1
                                   No pseudopotential on this center.
   46          1
                                   No pseudopotential on this center.
   47          8
                                   No pseudopotential on this center.
   48          1
                                   No pseudopotential on this center.
   49          1
                                   No pseudopotential on this center.
   50          8
                                   No pseudopotential on this center.
   51          1
                                   No pseudopotential on this center.
   52          1
                                   No pseudopotential on this center.
   53          1
                                   No pseudopotential on this center.
   54          1
                                   No pseudopotential on this center.
   55          1
                                   No pseudopotential on this center.
   56          1
                                   No pseudopotential on this center.
   57          1
                                   No pseudopotential on this center.
   58          6
                                   No pseudopotential on this center.
   59          6
                                   No pseudopotential on this center.
   60          6
                                   No pseudopotential on this center.
   61          6
                                   No pseudopotential on this center.
   62          6
                                   No pseudopotential on this center.
   63          6
                                   No pseudopotential on this center.
   64          1
                                   No pseudopotential on this center.
   65          1
                                   No pseudopotential on this center.
   66          1
                                   No pseudopotential on this center.
   67          8
                                   No pseudopotential on this center.
   68          6
                                   No pseudopotential on this center.
   69          8
                                   No pseudopotential on this center.
   70          6
                                   No pseudopotential on this center.
   71          1
                                   No pseudopotential on this center.
   72          1
                                   No pseudopotential on this center.
   73          1
                                   No pseudopotential on this center.
   74          6
                                   No pseudopotential on this center.
   75          6
                                   No pseudopotential on this center.
   76          1
                                   No pseudopotential on this center.
   77          6
                                   No pseudopotential on this center.
   78          6
                                   No pseudopotential on this center.
   79          1
                                   No pseudopotential on this center.
   80          1
                                   No pseudopotential on this center.
   81          1
                                   No pseudopotential on this center.
   82          8
                                   No pseudopotential on this center.
   83          8
                                   No pseudopotential on this center.
   84          8
                                   No pseudopotential on this center.
   85          1
                                   No pseudopotential on this center.
   86          1
                                   No pseudopotential on this center.
   87          8
                                   No pseudopotential on this center.
   88          1
                                   No pseudopotential on this center.
   89          1
                                   No pseudopotential on this center.
 ======================================================================================================
 There are  1178 symmetry adapted cartesian basis functions of A   symmetry.
 There are  1131 symmetry adapted basis functions of A   symmetry.
  1131 basis functions,  1958 primitive gaussians,  1178 cartesian basis functions
   176 alpha electrons      176 beta electrons
       nuclear repulsion energy      6854.7446700944 Hartrees.
 NAtoms=   89 NActive=   89 NUniq=   89 SFac= 1.00D+00 NAtFMM=   60 NAOKFM=T Big=T
 Integral buffers will be    131072 words long.
 Raffenetti 2 integral format.
 Two-electron integral symmetry is turned on.
 Force inversion solution in PCM.
 ------------------------------------------------------------------------------
 Polarizable Continuum Model (PCM)
 =================================
 Model                : PCM.
 Atomic radii         : UFF (Universal Force Field).
 Polarization charges : Total charges.
 Charge compensation  : None.
 Solution method      : Matrix inversion.
 Cavity type          : Scaled VdW (van der Waals Surface) (Alpha=1.100).
 Cavity algorithm     : GePol (No added spheres)
                        Default sphere list used, NSphG=   89.
                        Lebedev-Laikov grids with approx.  5.0 points / Ang**2.
                        Smoothing algorithm: York/Karplus (Gamma=1.0000).
                        Polarization charges: spherical gaussians, with
                                              point-specific exponents (IZeta= 3).
                        Self-potential: point-specific (ISelfS= 7).
                        Self-field    : sphere-specific E.n sum rule (ISelfD= 2).
 1st derivatives      : Analytical E(r).r(x)/FMM algorithm (CHGder, D1EAlg=3).
                        Cavity 1st derivative terms included.
 Solvent              : Water, Eps=  78.355300 Eps(inf)=   1.777849
 ------------------------------------------------------------------------------
 One-electron integrals computed using PRISM.
   1 Symmetry operations used in ECPInt.
 ECPInt:  NShTT=  170236 NPrTT=  582707 LenC2=  131412 LenP2D=  281991.
 LDataN:  DoStor=T MaxTD1= 5 Len=  102
 NBasis=  1131 RedAO= T EigKep=  5.91D-06  NBF=  1131
 NBsUse=  1131 1.00D-06 EigRej= -1.00D+00 NBFU=  1131
 ExpMin= 3.51D-02 ExpMax= 2.70D+04 ExpMxC= 9.22D+02 IAcc=3 IRadAn=         5 AccDes= 0.00D+00
 Harris functional with IExCor= 1009 and IRadAn=       5 diagonalized for initial guess.
 HarFok:  IExCor= 1009 AccDes= 0.00D+00 IRadAn=         5 IDoV= 1 UseB2=F ITyADJ=14
 ICtDFT=  3500011 ScaDFX=  1.000000  1.000000  1.000000  1.000000
 FoFCou: FMM=F IPFlag=           0 FMFlag=      100000 FMFlg1=        2001
         NFxFlg=           0 DoJE=T BraDBF=F KetDBF=T FulRan=T
         wScrn=  0.000000 ICntrl=       500 IOpCl=  0 I1Cent=   200000004 NGrid=           0
         NMat0=    1 NMatS0=      1 NMatT0=    0 NMatD0=    1 NMtDS0=    0 NMtDT0=    0
 Petite list used in FoFCou.
 Requested convergence on RMS density matrix=1.00D-08 within 128 cycles.
 Requested convergence on MAX density matrix=1.00D-06.
 Requested convergence on             energy=1.00D-06.
 No special actions if energy rises.
 Inv3:  Mode=1 IEnd=    95530347.
 Iteration    1 A*A^-1 deviation from unit magnitude is 3.44D-15 for   2172.
 Iteration    1 A*A^-1 deviation from orthogonality  is 1.97D-15 for   4607   3755.
 Iteration    1 A^-1*A deviation from unit magnitude is 3.44D-15 for   2418.
 Iteration    1 A^-1*A deviation from orthogonality  is 6.16D-15 for   5576   5544.
 Error on total polarization charges =  0.01978
 SCF Done:  E(RM062X) =  -2314.32663621     A.U. after   15 cycles
            NFock= 15  Conv=0.25D-08     -V/T= 1.9834
 DoSCS=F DFT=T ScalE2(SS,OS)=  1.000000  1.000000
 Range of M.O.s used for correlation:     1  1131
 NBasis=  1131 NAE=   176 NBE=   176 NFC=     0 NFV=     0
 NROrb=   1131 NOA=   176 NOB=   176 NVA=   955 NVB=   955

 **** Warning!!: The largest alpha MO coefficient is  0.54531120D+02

 Symmetrizing basis deriv contribution to polar:
 IMax=3 JMax=2 DiffMx= 0.00D+00

 **********************************************************************

            Population analysis using the SCF density.

 **********************************************************************

 Orbital symmetries:
       Occupied  (A) (A) (A) (A) (A) (A) (A) (A) (A) (A) (A) (A)
                 (A) (A) (A) (A) (A) (A) (A) (A) (A) (A) (A) (A)
                 (A) (A) (A) (A) (A) (A) (A) (A) (A) (A) (A) (A)
                 (A) (A) (A) (A) (A) (A) (A) (A) (A) (A) (A) (A)
                 (A) (A) (A) (A) (A) (A) (A) (A) (A) (A) (A) (A)
                 (A) (A) (A) (A) (A) (A) (A) (A) (A) (A) (A) (A)
                 (A) (A) (A) (A) (A) (A) (A) (A) (A) (A) (A) (A)
                 (A) (A) (A) (A) (A) (A) (A) (A) (A) (A) (A) (A)
                 (A) (A) (A) (A) (A) (A) (A) (A) (A) (A) (A) (A)
                 (A) (A) (A) (A) (A) (A) (A) (A) (A) (A) (A) (A)
                 (A) (A) (A) (A) (A) (A) (A) (A) (A) (A) (A) (A)
                 (A) (A) (A) (A) (A) (A) (A) (A) (A) (A) (A) (A)
                 (A) (A) (A) (A) (A) (A) (A) (A) (A) (A) (A) (A)
                 (A) (A) (A) (A) (A) (A) (A) (A) (A) (A) (A) (A)
                 (A) (A) (A) (A) (A) (A) (A) (A)
       Virtual   (A) (A) (A) (A) (A) (A) (A) (A) (A) (A) (A) (A)
                 (A) (A) (A) (A) (A) (A) (A) (A) (A) (A) (A) (A)
                 (A) (A) (A) (A) (A) (A) (A) (A) (A) (A) (A) (A)
                 (A) (A) (A) (A) (A) (A) (A) (A) (A) (A) (A) (A)
                 (A) (A) (A) (A) (A) (A) (A) (A) (A) (A) (A) (A)
                 (A) (A) (A) (A) (A) (A) (A) (A) (A) (A) (A) (A)
                 (A) (A) (A) (A) (A) (A) (A) (A) (A) (A) (A) (A)
                 (A) (A) (A) (A) (A) (A) (A) (A) (A) (A) (A) (A)
                 (A) (A) (A) (A) (A) (A) (A) (A) (A) (A) (A) (A)
                 (A) (A) (A) (A) (A) (A) (A) (A) (A) (A) (A) (A)
                 (A) (A) (A) (A) (A) (A) (A) (A) (A) (A) (A) (A)
                 (A) (A) (A) (A) (A) (A) (A) (A) (A) (A) (A) (A)
                 (A) (A) (A) (A) (A) (A) (A) (A) (A) (A) (A) (A)
                 (A) (A) (A) (A) (A) (A) (A) (A) (A) (A) (A) (A)
                 (A) (A) (A) (A) (A) (A) (A) (A) (A) (A) (A) (A)
                 (A) (A) (A) (A) (A) (A) (A) (A) (A) (A) (A) (A)
                 (A) (A) (A) (A) (A) (A) (A) (A) (A) (A) (A) (A)
                 (A) (A) (A) (A) (A) (A) (A) (A) (A) (A) (A) (A)
                 (A) (A) (A) (A) (A) (A) (A) (A) (A) (A) (A) (A)
                 (A) (A) (A) (A) (A) (A) (A) (A) (A) (A) (A) (A)
                 (A) (A) (A) (A) (A) (A) (A) (A) (A) (A) (A) (A)
                 (A) (A) (A) (A) (A) (A) (A) (A) (A) (A) (A) (A)
                 (A) (A) (A) (A) (A) (A) (A) (A) (A) (A) (A) (A)
                 (A) (A) (A) (A) (A) (A) (A) (A) (A) (A) (A) (A)
                 (A) (A) (A) (A) (A) (A) (A) (A) (A) (A) (A) (A)
                 (A) (A) (A) (A) (A) (A) (A) (A) (A) (A) (A) (A)
                 (A) (A) (A) (A) (A) (A) (A) (A) (A) (A) (A) (A)
                 (A) (A) (A) (A) (A) (A) (A) (A) (A) (A) (A) (A)
                 (A) (A) (A) (A) (A) (A) (A) (A) (A) (A) (A) (A)
                 (A) (A) (A) (A) (A) (A) (A) (A) (A) (A) (A) (A)
                 (A) (A) (A) (A) (A) (A) (A) (A) (A) (A) (A) (A)
                 (A) (A) (A) (A) (A) (A) (A) (A) (A) (A) (A) (A)
                 (A) (A) (A) (A) (A) (A) (A) (A) (A) (A) (A) (A)
                 (A) (A) (A) (A) (A) (A) (A) (A) (A) (A) (A) (A)
                 (A) (A) (A) (A) (A) (A) (A) (A) (A) (A) (A) (A)
                 (A) (A) (A) (A) (A) (A) (A) (A) (A) (A) (A) (A)
                 (A) (A) (A) (A) (A) (A) (A) (A) (A) (A) (A) (A)
                 (A) (A) (A) (A) (A) (A) (A) (A) (A) (A) (A) (A)
                 (A) (A) (A) (A) (A) (A) (A) (A) (A) (A) (A) (A)
                 (A) (A) (A) (A) (A) (A) (A) (A) (A) (A) (A) (A)
                 (A) (A) (A) (A) (A) (A) (A) (A) (A) (A) (A) (A)
                 (A) (A) (A) (A) (A) (A) (A) (A) (A) (A) (A) (A)
                 (A) (A) (A) (A) (A) (A) (A) (A) (A) (A) (A) (A)
                 (A) (A) (A) (A) (A) (A) (A) (A) (A) (A) (A) (A)
                 (A) (A) (A) (A) (A) (A) (A) (A) (A) (A) (A) (A)
                 (A) (A) (A) (A) (A) (A) (A) (A) (A) (A) (A) (A)
                 (A) (A) (A) (A) (A) (A) (A) (A) (A) (A) (A) (A)
                 (A) (A) (A) (A) (A) (A) (A) (A) (A) (A) (A) (A)
                 (A) (A) (A) (A) (A) (A) (A) (A) (A) (A) (A) (A)
                 (A) (A) (A) (A) (A) (A) (A) (A) (A) (A) (A) (A)
                 (A) (A) (A) (A) (A) (A) (A) (A) (A) (A) (A) (A)
                 (A) (A) (A) (A) (A) (A) (A) (A) (A) (A) (A) (A)
                 (A) (A) (A) (A) (A) (A) (A) (A) (A) (A) (A) (A)
                 (A) (A) (A) (A) (A) (A) (A) (A) (A) (A) (A) (A)
                 (A) (A) (A) (A) (A) (A) (A) (A) (A) (A) (A) (A)
                 (A) (A) (A) (A) (A) (A) (A) (A) (A) (A) (A) (A)
                 (A) (A) (A) (A) (A) (A) (A) (A) (A) (A) (A) (A)
                 (A) (A) (A) (A) (A) (A) (A) (A) (A) (A) (A) (A)
                 (A) (A) (A) (A) (A) (A) (A) (A) (A) (A) (A) (A)
                 (A) (A) (A) (A) (A) (A) (A) (A) (A) (A) (A) (A)
                 (A) (A) (A) (A) (A) (A) (A) (A) (A) (A) (A) (A)
                 (A) (A) (A) (A) (A) (A) (A) (A) (A) (A) (A) (A)
                 (A) (A) (A) (A) (A) (A) (A) (A) (A) (A) (A) (A)
                 (A) (A) (A) (A) (A) (A) (A) (A) (A) (A) (A) (A)
                 (A) (A) (A) (A) (A) (A) (A) (A) (A) (A) (A) (A)
                 (A) (A) (A) (A) (A) (A) (A) (A) (A) (A) (A) (A)
                 (A) (A) (A) (A) (A) (A) (A) (A) (A) (A) (A) (A)
                 (A) (A) (A) (A) (A) (A) (A) (A) (A) (A) (A) (A)
                 (A) (A) (A) (A) (A) (A) (A) (A) (A) (A) (A) (A)
                 (A) (A) (A) (A) (A) (A) (A) (A) (A) (A) (A) (A)
                 (A) (A) (A) (A) (A) (A) (A) (A) (A) (A) (A) (A)
                 (A) (A) (A) (A) (A) (A) (A) (A) (A) (A) (A) (A)
                 (A) (A) (A) (A) (A) (A) (A) (A) (A) (A) (A) (A)
                 (A) (A) (A) (A) (A) (A) (A) (A) (A) (A) (A) (A)
                 (A) (A) (A) (A) (A) (A) (A) (A) (A) (A) (A) (A)
                 (A) (A) (A) (A) (A) (A) (A) (A) (A) (A) (A) (A)
                 (A) (A) (A) (A) (A) (A) (A) (A) (A) (A) (A) (A)
                 (A) (A) (A) (A) (A) (A) (A) (A) (A) (A) (A) (A)
                 (A) (A) (A) (A) (A) (A) (A) (A) (A) (A) (A) (A)
                 (A) (A) (A) (A) (A) (A) (A)
 The electronic state is 1-A.
 Alpha  occ. eigenvalues --  -19.70405 -19.66877 -19.66523 -19.64645 -19.64576
 Alpha  occ. eigenvalues --  -19.62641 -19.62561 -19.62369 -19.62190 -19.61635
 Alpha  occ. eigenvalues --  -19.59876 -14.83590 -14.82543 -14.81333 -14.79759
 Alpha  occ. eigenvalues --  -14.78370 -14.77949 -10.70360 -10.68834 -10.68335
 Alpha  occ. eigenvalues --  -10.63527 -10.63197 -10.62395 -10.61795 -10.61036
 Alpha  occ. eigenvalues --  -10.59382 -10.59230 -10.59112 -10.58327 -10.58180
[...]
 Alpha virt. eigenvalues --    2.85910   2.86337   2.86965   2.87767   2.87942
 Alpha virt. eigenvalues --    2.88381   2.88528   2.89252   2.89711   2.89841
 Alpha virt. eigenvalues --    2.90053   2.90133   2.90309   2.90884   2.91126
 Alpha virt. eigenvalues --    2.91436   2.91811   2.92094   2.92579   2.92878
 Alpha virt. eigenvalues --    2.93212   2.93370   2.93616   2.94010   2.94213
 Alpha virt. eigenvalues --    2.94557   2.95055   2.95330   2.95566   2.95719
 Alpha virt. eigenvalues --    2.96141   2.96610   2.97058   2.97137   2.97636
 Alpha virt. eigenvalues --    2.97988   2.98786   2.99069   2.99640   2.99676
 Alpha virt. eigenvalues --    2.99967   3.00133   3.00385   3.00574   3.01509
 Alpha virt. eigenvalues --    3.01821   3.01922   3.02381   3.03074   3.03410
 Alpha virt. eigenvalues --    3.03655   3.04357   3.04883   3.05150   3.05628
 Alpha virt. eigenvalues --    3.05797   3.06163   3.06320   3.06706   3.06830
 Alpha virt. eigenvalues --    3.07071   3.07324   3.07900   3.08076   3.08387
 Alpha virt. eigenvalues --    3.08655   3.08918   3.09408   3.09894   3.09947
 Alpha virt. eigenvalues --    3.10160   3.10469   3.10821   3.11133   3.11469
 Alpha virt. eigenvalues --    3.12008   3.12252   3.12663   3.13159   3.13600
 Alpha virt. eigenvalues --    3.13859   3.14179   3.14506   3.15031   3.15290
 Alpha virt. eigenvalues --    3.15460   3.15849   3.16018   3.16308   3.16566
 Alpha virt. eigenvalues --    3.17059   3.17238   3.17531   3.17987   3.18527
 Alpha virt. eigenvalues --    3.18730   3.18925   3.19472   3.19878   3.19957
 Alpha virt. eigenvalues --    3.20104   3.20868   3.21044   3.21302   3.21942
 Alpha virt. eigenvalues --    3.22176   3.22449   3.22957   3.23198   3.23359
 Alpha virt. eigenvalues --    3.23658   3.24089   3.24350   3.25068   3.25280
 Alpha virt. eigenvalues --    3.25666   3.26158   3.26286   3.26844   3.27433
 Alpha virt. eigenvalues --    3.27552   3.27955   3.28275   3.29051   3.29267
 Alpha virt. eigenvalues --    3.29662   3.30083   3.30243   3.30353   3.30580
 Alpha virt. eigenvalues --    3.31183   3.31231   3.31488   3.31849   3.32398
 Alpha virt. eigenvalues --    3.32626   3.32906   3.33216   3.33292   3.33686
 Alpha virt. eigenvalues --    3.34158   3.34212   3.34640   3.34795   3.34955
 Alpha virt. eigenvalues --    3.35234   3.35404   3.35606   3.36075   3.36370
 Alpha virt. eigenvalues --    3.36772   3.37410   3.37751   3.37990   3.38152
 Alpha virt. eigenvalues --    3.38337   3.38961   3.39165   3.39838   3.40044
 Alpha virt. eigenvalues --    3.40298   3.40907   3.41470   3.41608   3.41822
 Alpha virt. eigenvalues --    3.41992   3.42229   3.42852   3.43228   3.43384
 Alpha virt. eigenvalues --    3.44374   3.44565   3.44706   3.45209   3.45264
 Alpha virt. eigenvalues --    3.45833   3.45997   3.46372   3.46580   3.47144
 Alpha virt. eigenvalues --    3.47225   3.47578   3.47680   3.47952   3.48667
 Alpha virt. eigenvalues --    3.48885   3.49187   3.49224   3.49931   3.50348
 Alpha virt. eigenvalues --    3.50630   3.50772   3.51526   3.51961   3.52258
 Alpha virt. eigenvalues --    3.52686   3.52885   3.53496   3.54432   3.54738
 Alpha virt. eigenvalues --    3.55280   3.55411   3.55660   3.56276   3.56748
 Alpha virt. eigenvalues --    3.56955   3.57409   3.57973   3.58272   3.59120
 Alpha virt. eigenvalues --    3.59689   3.59844   3.60099   3.60922   3.61261
 Alpha virt. eigenvalues --    3.61927   3.62520   3.62567   3.63290   3.63425
 Alpha virt. eigenvalues --    3.63599   3.64469   3.65119   3.65559   3.66315
 Alpha virt. eigenvalues --    3.66571   3.66863   3.67873   3.67955   3.68260
 Alpha virt. eigenvalues --    3.68772   3.69528   3.70295   3.70945   3.71190
 Alpha virt. eigenvalues --    3.71592   3.71738   3.72340   3.73241   3.73691
 Alpha virt. eigenvalues --    3.74147   3.74389   3.75472   3.76549   3.77695
 Alpha virt. eigenvalues --    3.78022   3.78176   3.79183   3.79475   3.79703
 Alpha virt. eigenvalues --    3.79749   3.80155   3.81111   3.81317   3.81808
 Alpha virt. eigenvalues --    3.81831   3.83248   3.83673   3.83858   3.84322
 Alpha virt. eigenvalues --    3.84655   3.85664   3.86215   3.86528   3.86882
 Alpha virt. eigenvalues --    3.88639   3.89710   3.89901   3.90428   3.91279
 Alpha virt. eigenvalues --    3.92330   3.92723   3.92989   3.93136   3.94718
 Alpha virt. eigenvalues --    3.95572   3.96533   3.96746   3.97121   3.97641
 Alpha virt. eigenvalues --    3.97941   3.98206   3.98488   3.98757   3.99227
 Alpha virt. eigenvalues --    3.99632   3.99689   4.00130   4.00640   4.01354
 Alpha virt. eigenvalues --    4.02194   4.03412   4.04141   4.05150   4.05400
 Alpha virt. eigenvalues --    4.05556   4.07975   4.08380   4.09114   4.09941
 Alpha virt. eigenvalues --    4.11313   4.11728   4.12315   4.13137   4.13745
 Alpha virt. eigenvalues --    4.14375   4.14711   4.15387   4.16057   4.16453
 Alpha virt. eigenvalues --    4.16734   4.18421   4.18548   4.18674   4.19729
 Alpha virt. eigenvalues --    4.21432   4.22227   4.22488   4.23134   4.23588
 Alpha virt. eigenvalues --    4.24817   4.25850   4.26317   4.26513   4.27506
 Alpha virt. eigenvalues --    4.27801   4.29671   4.30250   4.30700   4.31137
 Alpha virt. eigenvalues --    4.32059   4.32684   4.33212   4.34258   4.34341
 Alpha virt. eigenvalues --    4.36560   4.37756   4.38299   4.38827   4.39393
 Alpha virt. eigenvalues --    4.39911   4.41697   4.42444   4.42691   4.42988
 Alpha virt. eigenvalues --    4.43424   4.45435   4.45752   4.46114   4.46378
 Alpha virt. eigenvalues --    4.48029   4.48722   4.49112   4.49614   4.50007
 Alpha virt. eigenvalues --    4.50472   4.50794   4.52434   4.53197   4.54453
 Alpha virt. eigenvalues --    4.56396   4.56691   4.57402   4.58445   4.59797
 Alpha virt. eigenvalues --    4.60597   4.61327   4.62010   4.62435   4.63045
 Alpha virt. eigenvalues --    4.63414   4.63979   4.64547   4.64697   4.65091
 Alpha virt. eigenvalues --    4.66057   4.66400   4.66734   4.67484   4.68338
 Alpha virt. eigenvalues --    4.68819   4.68857   4.69368   4.70229   4.72971
 Alpha virt. eigenvalues --    4.73084   4.76237   4.76431   4.77050   4.77327
 Alpha virt. eigenvalues --    4.77539   4.78582   4.79552   4.79840   4.81538
 Alpha virt. eigenvalues --    4.82621   4.83506   4.83786   4.84506   4.84695
 Alpha virt. eigenvalues --    4.85607   4.86128   4.86915   4.87432   4.87766
 Alpha virt. eigenvalues --    4.88494   4.88809   4.89292   4.89804   4.90728
 Alpha virt. eigenvalues --    4.91044   4.91425   4.92726   4.94196   4.98346
 Alpha virt. eigenvalues --    4.98475   4.99179   4.99443   4.99973   5.01368
 Alpha virt. eigenvalues --    5.01467   5.03607   5.03736   5.04792   5.05494
 Alpha virt. eigenvalues --    5.06821   5.09624   5.10703   5.11211   5.11927
 Alpha virt. eigenvalues --    5.12488   5.12744   5.14203   5.14518   5.16354
 Alpha virt. eigenvalues --    5.16488   5.17196   5.18225   5.19765   5.20498
 Alpha virt. eigenvalues --    5.21313   5.21583   5.22124   5.22334   5.22694
 Alpha virt. eigenvalues --    5.22873   5.23669   5.23895   5.24289   5.24923
 Alpha virt. eigenvalues --    5.26312   5.26418   5.27077   5.28348   5.28499
 Alpha virt. eigenvalues --    5.28829   5.29219   5.30569   5.31487   5.32338
 Alpha virt. eigenvalues --    5.33114   5.34054   5.34818   5.34989   5.35318
 Alpha virt. eigenvalues --    5.35497   5.36821   5.37380   5.38741   5.39411
 Alpha virt. eigenvalues --    5.40196   5.40381   5.40575   5.40676   5.41222
 Alpha virt. eigenvalues --    5.41448   5.41776   5.42027   5.42956   5.43291
 Alpha virt. eigenvalues --    5.43706   5.43951   5.44397   5.45040   5.45099
 Alpha virt. eigenvalues --    5.46056   5.46711   5.47671   5.48297   5.48440
 Alpha virt. eigenvalues --    5.49239   5.49614   5.50109   5.50844   5.51007
 Alpha virt. eigenvalues --    5.51821   5.52210   5.53463   5.53883   5.55983
 Alpha virt. eigenvalues --    5.56350   5.56943   5.58026   5.58159   5.58306
 Alpha virt. eigenvalues --    5.58932   5.60913   5.62022   5.62565   5.63804
 Alpha virt. eigenvalues --    5.64963   5.68822   5.77071   5.77745   5.79552
 Alpha virt. eigenvalues --    5.84484   5.85237   5.85834   5.86133   5.88055
 Alpha virt. eigenvalues --    5.89375   5.89809   5.90502   5.93995   5.97307
 Alpha virt. eigenvalues --    5.98476   5.99523   5.99784   6.00392   6.00432
 Alpha virt. eigenvalues --    6.01319   6.01640   6.02456   6.04493   6.05377
 Alpha virt. eigenvalues --    6.06136   6.10573   6.16420   6.16974   6.18357
 Alpha virt. eigenvalues --    6.20720   6.22072   6.23111   6.23727   6.26424
 Alpha virt. eigenvalues --    6.28239   6.31810   6.32987   6.34500   6.35599
 Alpha virt. eigenvalues --    6.36481   6.36852   6.37323   6.38730   6.38741
 Alpha virt. eigenvalues --    6.40898   6.41566   6.42646   6.43955   6.45118
 Alpha virt. eigenvalues --    6.45399   6.47111   6.49571   6.49831   6.50759
 Alpha virt. eigenvalues --    6.52487   6.53902   6.56310   6.59240   6.62516
 Alpha virt. eigenvalues --    6.62624   6.65316   6.67638   6.70247   6.71131
 Alpha virt. eigenvalues --    6.75611   6.76059   6.79570   6.80523   6.82602
 Alpha virt. eigenvalues --    6.83596   6.84642   6.86232   6.86438   6.87475
 Alpha virt. eigenvalues --    6.92555   6.94287   6.95935   6.97479   6.98526
 Alpha virt. eigenvalues --    7.00693   7.02887   7.03249   7.04222   7.04275
 Alpha virt. eigenvalues --    7.07127   7.07610   7.07719   7.09681   7.11255
 Alpha virt. eigenvalues --    7.11489   7.15003   7.15747   7.19005   7.29787
 Alpha virt. eigenvalues --    7.30686   7.31902   7.33943   7.39537   7.44625
 Alpha virt. eigenvalues --   22.46823  22.47449  22.56996  22.58842  22.60885
 Alpha virt. eigenvalues --   22.63199  22.66245  22.66764  22.70522  22.77454
 Alpha virt. eigenvalues --   22.78338  22.78986  22.83867  22.90007  22.97698
 Alpha virt. eigenvalues --   23.02032  23.02780  23.04794  23.08236  23.17969
 Alpha virt. eigenvalues --   23.24106  23.28078  23.28550  23.29555  23.30331
 Alpha virt. eigenvalues --   23.44004  23.52153  23.69084  32.40056  32.41724
 Alpha virt. eigenvalues --   32.53329  32.66755  32.71651  32.76651  43.62732
 Alpha virt. eigenvalues --   43.76818  43.80178  43.89542  44.05142  44.09180
 Alpha virt. eigenvalues --   44.18169  44.27910  44.46463  44.51966  44.63523
 Alpha virt. eigenvalues --   69.28877  69.34181  69.40100  89.03469
          Condensed to atoms (all electrons):
 Mulliken charges:
               1
     1  C   -0.480855
     2  H    0.163898
     3  C   -0.312832
     4  H    0.175403
     5  H    0.170156
     6  N   -0.302307
     7  C    0.042336
     8  C    0.131511
     9  H    0.091932
    10  N   -0.237081
    11  H    0.329852
    12  C   -0.111378
    13  H    0.215071
    14  C   -0.544212
    15  H    0.176974
    16  C   -0.169005
    17  H    0.184192
    18  H    0.067926
    19  N   -0.294948
    20  C    0.051521
    21  C    0.066359
    22  H    0.209833
    23  N   -0.247198
    24  H    0.318391
    25  C   -0.111578
    26  H    0.225758
    27  C   -0.330653
    28  H    0.184096
    29  C   -0.328994
    30  H    0.100409
    31  H    0.207794
    32  N   -0.303492
    33  C    0.059893
    34  C    0.079319
    35  H    0.232527
    36  N   -0.241082
    37  H    0.321937
    38  C   -0.065235
    39  H    0.217342
    40  C    0.418556
    41  O   -0.468456
    42  O   -0.450402
    43  Zn   0.928872
    44  O   -0.713355
    45  H    0.395890
    46  H    0.405147
    47  O   -0.511776
    48  H    0.339081
    49  H    0.416347
    50  O   -0.801501
    51  H    0.417167
    52  H    0.404150
    53  H    0.164199
    54  H    0.162925
    55  H    0.165265
    56  H    0.181548
    57  H    0.211997
    58  C    0.293414
    59  C   -0.279185
    60  C   -0.249451
    61  C    0.071795
    62  C    0.180612
    63  C   -0.229830
    64  H    0.182023
    65  H    0.204204
    66  H    0.201429
    67  O   -0.600680
    68  C    0.520656
    69  O   -0.643062
    70  C   -0.508420
    71  H    0.180437
    72  H    0.193737
    73  H    0.179603
    74  C    0.358378
    75  C   -0.236368
    76  H    0.190059
    77  C    0.064448
    78  C   -0.547782
    79  H    0.199319
    80  H    0.195689
    81  H    0.172509
    82  O   -0.467402
    83  O   -0.249437
    84  O   -0.794620
    85  H    0.414811
    86  H    0.391804
    87  O   -0.789529
    88  H    0.394164
    89  H    0.397444
 Sum of Mulliken charges =   1.00000
 Mulliken charges with hydrogens summed into heavy atoms:
               1
     1  C    0.010167
     3  C    0.032728
     6  N   -0.302307
     7  C    0.042336
     8  C    0.223444
    10  N    0.092771
    12  C    0.103693
    14  C   -0.020425
    16  C    0.083114
    19  N   -0.294948
    20  C    0.051521
    21  C    0.276192
    23  N    0.071193
    25  C    0.114180
    27  C    0.065440
    29  C   -0.020791
    32  N   -0.303492
    33  C    0.059893
    34  C    0.311846
    36  N    0.080854
    38  C    0.152107
    40  C    0.418556
    41  O   -0.468456
    42  O   -0.033235
    43  Zn   0.928872
    44  O    0.087682
    47  O   -0.172696
    50  O    0.018995
    58  C    0.293414
    59  C   -0.097162
    60  C   -0.045247
    61  C    0.071795
    62  C    0.180612
    63  C   -0.028401
    67  O   -0.600680
    68  C    0.520656
    69  O   -0.643062
    70  C    0.045357
    74  C    0.358378
    75  C   -0.046309
    77  C    0.064448
    78  C    0.019734
    82  O   -0.467402
    83  O   -0.249437
    84  O    0.011995
    87  O    0.002079
 Electronic spatial extent (au):  <R**2>=          25518.2889
 Charge=              1.0000 electrons
 Dipole moment (field-independent basis, Debye):
    X=             16.8024    Y=             -3.4130    Z=              1.8674  Tot=             17.2469
 Quadrupole moment (field-independent basis, Debye-Ang):
   XX=           -227.1821   YY=           -226.7953   ZZ=           -251.5492
   XY=             53.8766   XZ=            -26.3154   YZ=             -1.4196
 Traceless Quadrupole moment (field-independent basis, Debye-Ang):
   XX=              7.9934   YY=              8.3803   ZZ=            -16.3737
   XY=             53.8766   XZ=            -26.3154   YZ=             -1.4196
 Octapole moment (field-independent basis, Debye-Ang**2):
  XXX=            532.7392  YYY=           -131.6364  ZZZ=            193.2210  XYY=             63.4493
  XXY=           -128.1890  XXZ=           -272.9742  XZZ=            114.0277  YZZ=              0.0241
  YYZ=              7.6193  XYZ=             91.3316
 Hexadecapole moment (field-independent basis, Debye-Ang**3):
 XXXX=         -16486.8532 YYYY=          -7558.0606 ZZZZ=          -5135.6043 XXXY=           1892.6868
 XXXZ=           -837.7390 YYYX=             66.6628 YYYZ=            107.6108 ZZZX=            -86.8056
 ZZZY=           -217.3318 XXYY=          -4003.8908 XXZZ=          -4222.3325 YYZZ=          -2762.9677
 XXYZ=           -121.9255 YYXZ=            -57.0517 ZZXY=            129.7684
 N-N= 7.208708235679D+03 E-N=-2.019768779335D+04  KE= 2.392176521474D+03
 1\1\GINC-GU23\SP\RM062X\GenECP\C28H43N6O11Zn1(1+)\YYQ\06-Aug-2024\0\\#
  geom(allcheck,modredundant) genecp scrf(SMD) m062x\\Title Card Requir
 ed\\1,1\C,0,2.8607689034,5.1795202275,1.450983205\H,0,3.5859618173,5.3
 038332237,2.2543249248\C,0,2.3031388653,3.7562844306,1.4497206163\H,0,
 1.8301838286,3.5424388808,2.413091857\H,0,3.1151961514,3.0331595767,1.
 350233047\N,0,1.0934475629,2.2757547017,-0.2033526733\C,0,1.3094254936
 ,3.5206189304,0.3567376949\C,0,0.1193797079,2.4184791095,-1.0906128255
 \H,0,-0.3053203549,1.6288718832,-1.6920376015\N,0,-0.2933271122,3.6868
 91395,-1.1328173206\H,0,-1.037822359,4.0128000602,-1.7628650629\C,0,0.
 4477687976,4.4054313813,-0.2287998383\H,0,0.3006976388,5.4603233132,-0
 .0808499385\C,0,-2.6385655174,1.6051697319,2.6993323737\H,0,-2.4632376
 331,2.1734214832,3.6143499812\C,0,-1.3292827571,1.3798439155,1.9342863
 407\H,0,-0.9172923764,2.3431503652,1.6176937556\H,0,-1.522738575,0.808
 1106679,1.0206656658\N,0,0.9067616749,0.1876176348,2.2315752356\C,0,-0
 .302152043,0.6481748279,2.74101896\C,0,1.5392596708,-0.4173411749,3.22
 27394768\H,0,2.4967005003,-0.9055521715,3.1515654265\N,0,0.8052822434,
 -0.3692402859,4.337911154\H,0,1.0670001546,-0.7641191987,5.2289430061\
 C,0,-0.3641662262,0.2977687218,4.0564206133\H,0,-1.1232775159,0.455591
 4414,4.8009097577\C,0,4.245197342,-3.447499713,-0.1738423966\H,0,5.319
 0547802,-3.5672530484,-0.2948630601\C,0,3.6770535393,-2.4795655787,-1.
 2307869148\H,0,2.5942026727,-2.4096877859,-1.1262519687\H,0,3.87002063
 86,-2.8943103965,-2.2204034935\N,0,3.6582751702,-0.0242746815,-0.54017
 10231\C,0,4.2737954202,-1.1112088656,-1.1447521423\C,0,4.4934380582,0.
 9962786907,-0.6586453563\H,0,4.3195693342,2.0013926657,-0.3130368886\N
 ,0,5.6044546057,0.6190147923,-1.2968773088\H,0,6.3875369658,1.21864643
 33,-1.5140632249\C,0,5.4875336794,-0.7081472726,-1.6161656947\H,0,6.25
 6217569,-1.2440806765,-2.1441171186\C,0,3.979655227,-2.8825277741,1.20
 28293972\O,0,4.8434460723,-2.4825456899,1.9452845623\O,0,2.6994147157,
 -2.7738681184,1.5601111171\Zn,0,1.780026103,0.3637598057,0.3453544796\
 O,0,-1.1528073549,-1.9689576813,0.8969490054\H,0,-2.0561816981,-2.1478
 209669,0.6025232213\H,0,-0.6828621424,-2.8218445609,0.8593208446\O,0,0
 .32571152,-0.6249133506,-0.8259922376\H,0,-0.2932656066,-1.1345749986,
 -0.2194463553\H,0,0.5463572799,-3.3735810438,-0.8327693188\O,0,0.75375
 81176,-3.7965208782,0.0496796346\H,0,2.05772447,-3.1847470822,0.924252
 0511\H,0,0.7131112993,-4.7522515879,-0.0652287572\H,0,3.3516550916,5.4
 030227936,0.5032078401\H,0,2.0655472012,5.9104191247,1.6034342331\H,0,
 -3.3459729025,2.1563961691,2.0829308891\H,0,-3.098263867,0.6519340483,
 2.970096425\H,0,3.758225344,-4.4194515991,-0.274371034\C,0,-2.25748122
 28,-0.8369855146,-2.0349894818\C,0,-2.7383216225,-2.1650291749,-2.0073
 555698\C,0,-3.8082178713,-2.5016868885,-1.2074028324\C,0,-4.456699571,
 -1.5416960999,-0.4107681722\C,0,-3.9940690852,-0.2242505281,-0.4876871
 704\C,0,-2.9084116405,0.1332795788,-1.2691448748\H,0,-2.2392431623,-2.
 9052860802,-2.6155698006\H,0,-4.1581138528,-3.5260042049,-1.1884308738
 \H,0,-2.5740613287,1.163270017,-1.2828737331\O,0,-1.1873938137,-0.5134
 039489,-2.7509326462\C,0,0.3386187021,-1.2188457005,-2.1086908454\O,0,
 0.2455833441,-2.4608291015,-2.1358191137\C,0,1.2568951731,-0.488249783
 5,-3.0527374581\H,0,2.2833182581,-0.7993299285,-2.8563344596\H,0,0.995
 8514815,-0.7729091347,-4.0694996201\H,0,1.1869271789,0.5922565411,-2.9
 440224137\C,0,-5.6382075484,0.5486681661,1.0734196234\C,0,-6.124079076
 ,-0.8121200715,1.1684216186\H,0,-6.9573589682,-0.9660662095,1.83941798
 51\C,0,-5.5766317764,-1.825085955,0.463717985\C,0,-6.0968022669,-3.223
 7558962,0.5713782342\H,0,-6.4405533415,-3.5781078635,-0.402343347\H,0,
 -5.3070941463,-3.8996360206,0.9048490575\H,0,-6.9241899635,-3.27559906
 06,1.2750876826\O,0,-6.0816427439,1.5020511023,1.6694686011\O,0,-4.584
 8802992,0.7759824004,0.2292269174\O,0,-2.2229999715,3.9321521157,-3.10
 9785533\H,0,-1.9714360057,3.1230777895,-3.605262056\H,0,-3.1692779008,
 3.8705293666,-2.9487076753\O,0,-1.3417813019,1.6643097103,-4.315211721
 3\H,0,-0.6106433463,1.6653928057,-4.9401144623\H,0,-1.2618148664,0.839
 6518304,-3.7816541364\\Version=ES64L-G16RevA.03\State=1-A\HF=-2476.220
 932\RMSD=1.343e-09\Dipole=6.6131613,-1.3605534,0.6764041\Quadrupole=5.
 8105757,6.1015689,-11.9121446,40.2052514,-19.3723584,-1.1609249\PG=C01
  [X(C28H43N6O11Zn1)]\\@


 A COMPLEXITY IS MERELY A DISARRANGEMENT OF SIMPLICITIES.

                                    -- G. O. ABELL IN "EXPLORATION OF THE UNIVERSE"
 Job cpu time:       0 days 19 hours  4 minutes 51.9 seconds.
 Elapsed time:       0 days  0 hours 48 minutes  7.7 seconds.
 File lengths (MBytes):  RWF=   2143 Int=      0 D2E=      0 Chk=    240 Scr=      1
 Normal termination of Gaussian 16 at Tue Aug  6 20:04:02 2024.
