 Entering Gaussian System, Link 0=g16
 Initial command:
 /share/home/dongh_N/wxy/software/g16/l1.exe "/tmp/Gau-20223.inp" -scrdir="/tmp/"
 Entering Link 1 = /share/home/dongh_N/wxy/software/g16/l1.exe PID=     20224.
  
 Copyright (c) 1988,1990,1992,1993,1995,1998,2003,2009,2016,
            Gaussian, Inc.  All Rights Reserved.
  
 This is part of the Gaussian(R) 16 program.  It is based on
 the Gaussian(R) 09 system (copyright 2009, Gaussian, Inc.),
 the Gaussian(R) 03 system (copyright 2003, Gaussian, Inc.),
 the Gaussian(R) 98 system (copyright 1998, Gaussian, Inc.),
 the Gaussian(R) 94 system (copyright 1995, Gaussian, Inc.),
 the Gaussian 92(TM) system (copyright 1992, Gaussian, Inc.),
 the Gaussian 90(TM) system (copyright 1990, Gaussian, Inc.),
 the Gaussian 88(TM) system (copyright 1988, Gaussian, Inc.),
 the Gaussian 86(TM) system (copyright 1986, Carnegie Mellon
 University), and the Gaussian 82(TM) system (copyright 1983,
 Carnegie Mellon University). Gaussian is a federally registered
 trademark of Gaussian, Inc.
  
 This software contains proprietary and confidential information,
 including trade secrets, belonging to Gaussian, Inc.
  
 This software is provided under written license and may be
 used, copied, transmitted, or stored only in accord with that
 written license.
  
 The following legend is applicable only to US Government
 contracts under FAR:
  
                    RESTRICTED RIGHTS LEGEND
  
 Use, reproduction and disclosure by the US Government is
 subject to restrictions as set forth in subparagraphs (a)
 and (c) of the Commercial Computer Software - Restricted
 Rights clause in FAR 52.227-19.
  
 Gaussian, Inc.
 340 Quinnipiac St., Bldg. 40, Wallingford CT 06492
  
  
 ---------------------------------------------------------------
 Warning -- This program may not be used in any manner that
 competes with the business of Gaussian, Inc. or will provide
 assistance to any competitor of Gaussian, Inc.  The licensee
 of this program is prohibited from giving any competitor of
 Gaussian, Inc. access to this program.  By using this program,
 the user acknowledges that Gaussian, Inc. is engaged in the
 business of creating and licensing software in the field of
 computational chemistry and represents and warrants to the
 licensee that it is not a competitor of Gaussian, Inc. and that
 it will not use this program in any manner prohibited above.
 ---------------------------------------------------------------
  

 Cite this work as:
 Gaussian 16, Revision A.03,
 M. J. Frisch, G. W. Trucks, H. B. Schlegel, G. E. Scuseria, 
 M. A. Robb, J. R. Cheeseman, G. Scalmani, V. Barone, 
 G. A. Petersson, H. Nakatsuji, X. Li, M. Caricato, A. V. Marenich, 
 J. Bloino, B. G. Janesko, R. Gomperts, B. Mennucci, H. P. Hratchian, 
 J. V. Ortiz, A. F. Izmaylov, J. L. Sonnenberg, D. Williams-Young, 
 F. Ding, F. Lipparini, F. Egidi, J. Goings, B. Peng, A. Petrone, 
 T. Henderson, D. Ranasinghe, V. G. Zakrzewski, J. Gao, N. Rega, 
 G. Zheng, W. Liang, M. Hada, M. Ehara, K. Toyota, R. Fukuda, 
 J. Hasegawa, M. Ishida, T. Nakajima, Y. Honda, O. Kitao, H. Nakai, 
 T. Vreven, K. Throssell, J. A. Montgomery, Jr., J. E. Peralta, 
 F. Ogliaro, M. J. Bearpark, J. J. Heyd, E. N. Brothers, K. N. Kudin, 
 V. N. Staroverov, T. A. Keith, R. Kobayashi, J. Normand, 
 K. Raghavachari, A. P. Rendell, J. C. Burant, S. S. Iyengar, 
 J. Tomasi, M. Cossi, J. M. Millam, M. Klene, C. Adamo, R. Cammi, 
 J. W. Ochterski, R. L. Martin, K. Morokuma, O. Farkas, 
 J. B. Foresman, and D. J. Fox, Gaussian, Inc., Wallingford CT, 2016.
 
 ******************************************
 Gaussian 16:  ES64L-G16RevA.03 25-Dec-2016
                11-Aug-2024 
 ******************************************
 %chk=13_2_tsopt_sp_continue.chk
 %mem=64GB
 %nprocshared=80
 Will use up to   80 processors via shared memory.
 ----------------------------------------------------------------------
 # opt=(ts,modredundant,noeigen,recalc=3,maxstep=10,notrust,gdiis) freq
  genecp scrf m062x
 ----------------------------------------------------------------------

 Warning!  Use of Opt=GDIIS is deprecated since it is seldom a good choice.

 1/5=1,8=10,9=1,10=4,11=1,18=120,19=11,26=3,38=1,71=3/1,3;
 2/9=110,12=2,17=6,18=5,40=1/2;
 3/5=7,11=2,16=1,17=8,25=1,30=1,70=2201,71=2,74=-55,140=1/1,2,3;
 4//1;
 5/5=2,38=5/2;
 8/6=4,10=90,11=11/1;
 11/6=1,8=1,9=11,15=111,16=1/1,2,10;
 10/6=1/2;
 6/7=2,8=2,9=2,10=2,28=1/1;
 7/10=1,25=1/1,2,3,16;
 1/5=1,8=10,9=1,10=4,11=1,18=20,19=11,26=3,71=3/3(3);
 2/9=110/2;
 7/9=1,25=1,44=-1/16;
 99//99;
 2/9=110/2;
 3/5=7,6=1,11=2,16=1,17=8,25=1,30=1,70=2205,71=2,74=-55,82=7,140=1/1,2,3;
 4/5=5,16=3,69=1/1;
 5/5=2,38=5/2;
 8/6=4,10=90,11=11/1;
 11/6=1,8=1,9=11,15=111,16=1/1,2,10;
 10/6=1/2;
 7/10=1,25=1/1,2,3,16;
 1/5=1,8=10,9=1,11=1,18=20,19=11,26=3,71=3/3(-8);
 2/9=110/2;
 6/7=2,8=2,9=2,10=2,19=2,28=1/1;
 7/9=1,25=1,44=-1/16;
 99/9=1/99;
 -------------------
 Title Card Required
 -------------------
 Symbolic Z-matrix:
 Charge =  1 Multiplicity = 1
 C                     1.22418   4.45906   3.56148 
 H                     1.86516   4.46228   4.44189 
 C                     1.36016   3.13309   2.81021 
 H                     1.09012   2.30457   3.47248 
 H                     2.40776   2.97114   2.54214 
 N                     0.62475   2.04294   0.64263 
 C                     0.51177   3.05956   1.57667 
 C                    -0.30844   2.27671  -0.27802 
 H                    -0.49985   1.654    -1.13973 
 N                    -1.00296   3.37641   0.00137 
 H                    -1.79895   3.78035  -0.67212 
 C                    -0.49723   3.88853   1.16925 
 H                    -0.88606   4.78907   1.612 
 C                    -2.99184  -0.57126   2.33763 
 H                    -3.02742  -0.39902   3.41467 
 C                    -1.60698  -0.2335    1.77654 
 H                    -1.41089   0.8359    1.89729 
 H                    -1.58549  -0.4285    0.69658 
 N                     0.83386  -0.90194   2.10495 
 C                    -0.51119  -1.01021   2.439 
 C                     1.49502  -1.7471    2.87659 
 H                     2.55743  -1.9206    2.85186 
 N                     0.65012  -2.38774   3.68874 
 H                     0.90956  -3.08273   4.3729 
 C                    -0.62345  -1.93803   3.43037 
 H                    -1.47912  -2.31461   3.96096 
 C                     5.30107  -2.102    -0.83326 
 H                     6.34116  -1.78948  -0.78387 
 C                     4.46661  -1.10852  -1.66536 
 H                     3.43692  -1.46163  -1.71187 
 H                     4.84465  -1.11469  -2.68757 
 N                     3.56596   0.8625   -0.29445 
 C                     4.49769   0.29922  -1.15767 
 C                     3.92451   2.12595  -0.12735 
 H                     3.40076   2.85745   0.4654 
 N                     5.03125   2.3955   -0.82432 
 H                     5.49425   3.29236  -0.86357 
 C                     5.40972   1.25759  -1.48595 
 H                     6.26857   1.2248   -2.13265 
 C                     4.74531  -2.15281   0.5709 
 O                     5.3143   -1.72959   1.54492 
 O                     3.50703  -2.64755   0.69369 
 Zn                    1.79179   0.30772   0.7094 
 O                    -0.00995  -2.85924  -0.13615 
 H                    -0.91217  -3.13625  -0.3359 
 H                     0.59561  -3.54188  -0.47739 
 O                     0.7895   -0.62392  -1.02632 
 H                     0.41426  -1.5374   -0.71486 
 H                     1.90901  -3.26326  -2.21351 
 O                     2.22375  -3.78135  -1.45095 
 H                     3.1533   -3.03588  -0.13748 
 H                     2.54937  -4.62338  -1.78982 
 H                     1.50963   5.29732   2.92456 
 H                     0.19628   4.61639   3.89141 
 H                    -3.74697   0.06167   1.87411 
 H                    -3.25253  -1.61356   2.14532 
 H                     5.24075  -3.09181  -1.28932 
 C                    -2.28897  -0.16126  -2.22332 
 C                    -2.28174  -1.56475  -2.09366 
 C                    -3.24648  -2.19681  -1.34296 
 C                    -4.25285  -1.47065  -0.68508 
 C                    -4.23274  -0.08009  -0.82508 
 C                    -3.2677    0.58402  -1.56439 
 H                    -1.52089  -2.12425  -2.6242 
 H                    -3.24907  -3.27831  -1.2761 
 H                    -3.29014   1.66478  -1.63247 
 O                    -1.34825   0.40985  -2.97012 
 C                     1.13697  -0.65651  -2.32714 
 O                     1.10776  -1.69537  -2.9476 
 C                     1.60785   0.6416   -2.90058 
 H                     2.64547   0.52425  -3.21686 
 H                     1.00434   0.85488  -3.78029 
 H                     1.53374   1.46034  -2.1903 
 C                    -6.19619   0.17478   0.52902 
 C                    -6.22248  -1.26321   0.68535 
 H                    -7.02689  -1.65394   1.29229 
 C                    -5.30172  -2.06755   0.11135 
 C                    -5.3385   -3.55182   0.29734 
 H                    -5.4185   -4.05775  -0.66655 
 H                    -4.41742  -3.89676   0.77247 
 H                    -6.18297  -3.84347   0.91722 
 O                    -6.98547   0.95525   1.00684 
 O                    -5.17832   0.70127  -0.22483 
 O                    -2.65158   4.19098  -1.73314 
 H                    -2.31994   3.46294  -2.68934 
 H                    -3.60026   4.17523  -1.57997 
 O                    -1.95944   2.73261  -3.51708 
 H                    -1.38163   3.18653  -4.13664 
 H                    -1.58423   1.42005  -3.20322 
 
 Add virtual bond connecting atoms O87        and H85        Dist= 2.19D+00.
 Add virtual bond connecting atoms H85        and O84        Dist= 2.36D+00.
 Add virtual bond connecting atoms H89        and O87        Dist= 2.65D+00.
 Add virtual bond connecting atoms O84        and H11        Dist= 2.69D+00.
 Add virtual bond connecting atoms H48        and O44        Dist= 2.84D+00.
 Add virtual bond connecting atoms H51        and O50        Dist= 3.35D+00.
 Add virtual bond connecting atoms H46        and O50        Dist= 3.61D+00.
 Add virtual bond connecting atoms O69        and H49        Dist= 3.60D+00.
 The following ModRedundant input section has been read:
 X      27 F                                                                   
 X       1 F                                                                   
 X      14 F                                                                   
 B      67      68 B                                                           
 

 GradGradGradGradGradGradGradGradGradGradGradGradGradGradGradGradGradGrad
 Berny optimization.
 Initialization pass.
                           ----------------------------
                           !    Initial Parameters    !
                           ! (Angstroms and Degrees)  !
 --------------------------                            --------------------------
 ! Name  Definition              Value          Derivative Info.                !
 --------------------------------------------------------------------------------
 ! X1    R(1,-1)                 1.2242         frozen, calculate D2E/DX2 analyt!
 ! Y1    R(1,-2)                 4.4591         frozen, calculate D2E/DX2 analyt!
 ! Z1    R(1,-3)                 3.5615         frozen, calculate D2E/DX2 analyt!
 ! X14   R(14,-1)               -2.9918         frozen, calculate D2E/DX2 analyt!
 ! Y14   R(14,-2)               -0.5713         frozen, calculate D2E/DX2 analyt!
 ! Z14   R(14,-3)                2.3376         frozen, calculate D2E/DX2 analyt!
 ! X27   R(27,-1)                5.3011         frozen, calculate D2E/DX2 analyt!
 ! Y27   R(27,-2)               -2.102          frozen, calculate D2E/DX2 analyt!
 ! Z27   R(27,-3)               -0.8333         frozen, calculate D2E/DX2 analyt!
 ! R1    R(1,2)                  1.089          calculate D2E/DX2 analytically  !
 ! R2    R(1,3)                  1.5301         calculate D2E/DX2 analytically  !
 ! R3    R(1,53)                 1.0908         calculate D2E/DX2 analytically  !
 ! R4    R(1,54)                 1.091          calculate D2E/DX2 analytically  !
 ! R5    R(3,4)                  1.0945         calculate D2E/DX2 analytically  !
 ! R6    R(3,5)                  1.0934         calculate D2E/DX2 analytically  !
 ! R7    R(3,7)                  1.4989         calculate D2E/DX2 analytically  !
 ! R8    R(6,7)                  1.3852         calculate D2E/DX2 analytically  !
 ! R9    R(6,8)                  1.3316         calculate D2E/DX2 analytically  !
 ! R10   R(6,43)                 2.0922         calculate D2E/DX2 analytically  !
 ! R11   R(7,12)                 1.3679         calculate D2E/DX2 analytically  !
 ! R12   R(8,9)                  1.0803         calculate D2E/DX2 analytically  !
 ! R13   R(8,10)                 1.3303         calculate D2E/DX2 analytically  !
 ! R14   R(10,11)                1.1182         calculate D2E/DX2 analytically  !
 ! R15   R(10,12)                1.3718         calculate D2E/DX2 analytically  !
 ! R16   R(11,84)                1.4217         calculate D2E/DX2 analytically  !
 ! R17   R(12,13)                1.0762         calculate D2E/DX2 analytically  !
 ! R18   R(14,15)                1.0913         calculate D2E/DX2 analytically  !
 ! R19   R(14,16)                1.5319         calculate D2E/DX2 analytically  !
 ! R20   R(14,55)                1.0889         calculate D2E/DX2 analytically  !
 ! R21   R(14,56)                1.0915         calculate D2E/DX2 analytically  !
 ! R22   R(16,17)                1.0939         calculate D2E/DX2 analytically  !
 ! R23   R(16,18)                1.0976         calculate D2E/DX2 analytically  !
 ! R24   R(16,20)                1.4976         calculate D2E/DX2 analytically  !
 ! R25   R(19,20)                1.3901         calculate D2E/DX2 analytically  !
 ! R26   R(19,21)                1.3217         calculate D2E/DX2 analytically  !
 ! R27   R(19,43)                2.0805         calculate D2E/DX2 analytically  !
 ! R28   R(20,25)                1.3625         calculate D2E/DX2 analytically  !
 ! R29   R(21,22)                1.0768         calculate D2E/DX2 analytically  !
 ! R30   R(21,23)                1.3356         calculate D2E/DX2 analytically  !
 ! R31   R(23,24)                1.0092         calculate D2E/DX2 analytically  !
 ! R32   R(23,25)                1.3751         calculate D2E/DX2 analytically  !
 ! R33   R(25,26)                1.0749         calculate D2E/DX2 analytically  !
 ! R34   R(27,28)                1.0871         calculate D2E/DX2 analytically  !
 ! R35   R(27,29)                1.5413         calculate D2E/DX2 analytically  !
 ! R36   R(27,40)                1.511          calculate D2E/DX2 analytically  !
 ! R37   R(27,57)                1.0915         calculate D2E/DX2 analytically  !
 ! R38   R(29,30)                1.0895         calculate D2E/DX2 analytically  !
 ! R39   R(29,31)                1.0899         calculate D2E/DX2 analytically  !
 ! R40   R(29,33)                1.4968         calculate D2E/DX2 analytically  !
 ! R41   R(32,33)                1.3894         calculate D2E/DX2 analytically  !
 ! R42   R(32,34)                1.3239         calculate D2E/DX2 analytically  !
 ! R43   R(32,43)                2.1126         calculate D2E/DX2 analytically  !
 ! R44   R(33,38)                1.3631         calculate D2E/DX2 analytically  !
 ! R45   R(34,35)                1.0774         calculate D2E/DX2 analytically  !
 ! R46   R(34,36)                1.3354         calculate D2E/DX2 analytically  !
 ! R47   R(36,37)                1.0101         calculate D2E/DX2 analytically  !
 ! R48   R(36,38)                1.3696         calculate D2E/DX2 analytically  !
 ! R49   R(38,39)                1.0756         calculate D2E/DX2 analytically  !
 ! R50   R(40,41)                1.2048         calculate D2E/DX2 analytically  !
 ! R51   R(40,42)                1.3391         calculate D2E/DX2 analytically  !
 ! R52   R(42,51)                0.9832         calculate D2E/DX2 analytically  !
 ! R53   R(44,45)                0.9647         calculate D2E/DX2 analytically  !
 ! R54   R(44,46)                0.9742         calculate D2E/DX2 analytically  !
 ! R55   R(44,48)                1.504          calculate D2E/DX2 analytically  !
 ! R56   R(46,50)                1.9121         calculate D2E/DX2 analytically  !
 ! R57   R(47,48)                1.0355         calculate D2E/DX2 analytically  !
 ! R58   R(47,68)                1.3468         calculate D2E/DX2 analytically  !
 ! R59   R(49,50)                0.9742         calculate D2E/DX2 analytically  !
 ! R60   R(49,69)                1.9077         calculate D2E/DX2 analytically  !
 ! R61   R(50,51)                1.7734         calculate D2E/DX2 analytically  !
 ! R62   R(50,52)                0.9643         calculate D2E/DX2 analytically  !
 ! R63   R(58,59)                1.4095         calculate D2E/DX2 analytically  !
 ! R64   R(58,63)                1.3956         calculate D2E/DX2 analytically  !
 ! R65   R(58,67)                1.33           calculate D2E/DX2 analytically  !
 ! R66   R(59,60)                1.3761         calculate D2E/DX2 analytically  !
 ! R67   R(59,64)                1.0832         calculate D2E/DX2 analytically  !
 ! R68   R(60,61)                1.4046         calculate D2E/DX2 analytically  !
 ! R69   R(60,65)                1.0836         calculate D2E/DX2 analytically  !
 ! R70   R(61,62)                1.3977         calculate D2E/DX2 analytically  !
 ! R71   R(61,77)                1.4459         calculate D2E/DX2 analytically  !
 ! R72   R(62,63)                1.3853         calculate D2E/DX2 analytically  !
 ! R73   R(62,83)                1.3656         calculate D2E/DX2 analytically  !
 ! R74   R(63,66)                1.0831         calculate D2E/DX2 analytically  !
 ! R75   R(67,68)                2.7797         calculate D2E/DX2 analytically  !
 ! R76   R(67,89)                1.0633         calculate D2E/DX2 analytically  !
 ! R77   R(68,69)                1.2104         calculate D2E/DX2 analytically  !
 ! R78   R(68,70)                1.4952         calculate D2E/DX2 analytically  !
 ! R79   R(70,71)                1.0911         calculate D2E/DX2 analytically  !
 ! R80   R(70,72)                1.0879         calculate D2E/DX2 analytically  !
 ! R81   R(70,73)                1.0864         calculate D2E/DX2 analytically  !
 ! R82   R(74,75)                1.4467         calculate D2E/DX2 analytically  !
 ! R83   R(74,82)                1.2085         calculate D2E/DX2 analytically  !
 ! R84   R(74,83)                1.3717         calculate D2E/DX2 analytically  !
 ! R85   R(75,76)                1.0808         calculate D2E/DX2 analytically  !
 ! R86   R(75,77)                1.3507         calculate D2E/DX2 analytically  !
 ! R87   R(77,78)                1.4963         calculate D2E/DX2 analytically  !
 ! R88   R(78,79)                1.0915         calculate D2E/DX2 analytically  !
 ! R89   R(78,80)                1.0923         calculate D2E/DX2 analytically  !
 ! R90   R(78,81)                1.0874         calculate D2E/DX2 analytically  !
 ! R91   R(84,85)                1.2467         calculate D2E/DX2 analytically  !
 ! R92   R(84,86)                0.9611         calculate D2E/DX2 analytically  !
 ! R93   R(85,87)                1.1613         calculate D2E/DX2 analytically  !
 ! R94   R(87,88)                0.9611         calculate D2E/DX2 analytically  !
 ! R95   R(87,89)                1.4008         calculate D2E/DX2 analytically  !
 ! A1    A(2,1,3)              110.3163         calculate D2E/DX2 analytically  !
 ! A2    A(2,1,53)             108.4065         calculate D2E/DX2 analytically  !
 ! A3    A(2,1,54)             108.0381         calculate D2E/DX2 analytically  !
 ! A4    A(3,1,53)             110.8552         calculate D2E/DX2 analytically  !
 ! A5    A(3,1,54)             110.9284         calculate D2E/DX2 analytically  !
 ! A6    A(53,1,54)            108.1996         calculate D2E/DX2 analytically  !
 ! A7    A(1,3,4)              109.6925         calculate D2E/DX2 analytically  !
 ! A8    A(1,3,5)              109.5051         calculate D2E/DX2 analytically  !
 ! A9    A(1,3,7)              113.3464         calculate D2E/DX2 analytically  !
 ! A10   A(4,3,5)              105.8189         calculate D2E/DX2 analytically  !
 ! A11   A(4,3,7)              108.7335         calculate D2E/DX2 analytically  !
 ! A12   A(5,3,7)              109.4669         calculate D2E/DX2 analytically  !
 ! A13   A(7,6,8)              106.2729         calculate D2E/DX2 analytically  !
 ! A14   A(7,6,43)             129.247          calculate D2E/DX2 analytically  !
 ! A15   A(8,6,43)             123.9579         calculate D2E/DX2 analytically  !
 ! A16   A(3,7,6)              123.0087         calculate D2E/DX2 analytically  !
 ! A17   A(3,7,12)             129.261          calculate D2E/DX2 analytically  !
 ! A18   A(6,7,12)             107.7031         calculate D2E/DX2 analytically  !
 ! A19   A(6,8,9)              125.0644         calculate D2E/DX2 analytically  !
 ! A20   A(6,8,10)             111.4561         calculate D2E/DX2 analytically  !
 ! A21   A(9,8,10)             123.4733         calculate D2E/DX2 analytically  !
 ! A22   A(8,10,11)            122.9401         calculate D2E/DX2 analytically  !
 ! A23   A(8,10,12)            107.1534         calculate D2E/DX2 analytically  !
 ! A24   A(11,10,12)           129.8151         calculate D2E/DX2 analytically  !
 ! A25   A(7,12,10)            107.4121         calculate D2E/DX2 analytically  !
 ! A26   A(7,12,13)            130.6216         calculate D2E/DX2 analytically  !
 ! A27   A(10,12,13)           121.9662         calculate D2E/DX2 analytically  !
 ! A28   A(15,14,16)           110.8648         calculate D2E/DX2 analytically  !
 ! A29   A(15,14,55)           107.8038         calculate D2E/DX2 analytically  !
 ! A30   A(15,14,56)           108.4707         calculate D2E/DX2 analytically  !
 ! A31   A(16,14,55)           110.0508         calculate D2E/DX2 analytically  !
 ! A32   A(16,14,56)           111.2187         calculate D2E/DX2 analytically  !
 ! A33   A(55,14,56)           108.3266         calculate D2E/DX2 analytically  !
 ! A34   A(14,16,17)           109.7036         calculate D2E/DX2 analytically  !
 ! A35   A(14,16,18)           109.81           calculate D2E/DX2 analytically  !
 ! A36   A(14,16,20)           112.649          calculate D2E/DX2 analytically  !
 ! A37   A(17,16,18)           106.1869         calculate D2E/DX2 analytically  !
 ! A38   A(17,16,20)           109.0882         calculate D2E/DX2 analytically  !
 ! A39   A(18,16,20)           109.1934         calculate D2E/DX2 analytically  !
 ! A40   A(20,19,21)           107.0927         calculate D2E/DX2 analytically  !
 ! A41   A(20,19,43)           130.6907         calculate D2E/DX2 analytically  !
 ! A42   A(21,19,43)           122.2144         calculate D2E/DX2 analytically  !
 ! A43   A(16,20,19)           124.1435         calculate D2E/DX2 analytically  !
 ! A44   A(16,20,25)           127.9347         calculate D2E/DX2 analytically  !
 ! A45   A(19,20,25)           107.9152         calculate D2E/DX2 analytically  !
 ! A46   A(19,21,22)           125.6757         calculate D2E/DX2 analytically  !
 ! A47   A(19,21,23)           110.1992         calculate D2E/DX2 analytically  !
 ! A48   A(22,21,23)           124.1135         calculate D2E/DX2 analytically  !
 ! A49   A(21,23,24)           125.447          calculate D2E/DX2 analytically  !
 ! A50   A(21,23,25)           108.3466         calculate D2E/DX2 analytically  !
 ! A51   A(24,23,25)           126.2064         calculate D2E/DX2 analytically  !
 ! A52   A(20,25,23)           106.4459         calculate D2E/DX2 analytically  !
 ! A53   A(20,25,26)           131.5529         calculate D2E/DX2 analytically  !
 ! A54   A(23,25,26)           122.0003         calculate D2E/DX2 analytically  !
 ! A55   A(28,27,29)           110.9273         calculate D2E/DX2 analytically  !
 ! A56   A(28,27,40)           108.6228         calculate D2E/DX2 analytically  !
 ! A57   A(28,27,57)           109.4233         calculate D2E/DX2 analytically  !
 ! A58   A(29,27,40)           108.9188         calculate D2E/DX2 analytically  !
 ! A59   A(29,27,57)           109.2097         calculate D2E/DX2 analytically  !
 ! A60   A(40,27,57)           109.7228         calculate D2E/DX2 analytically  !
 ! A61   A(27,29,30)           109.0139         calculate D2E/DX2 analytically  !
 ! A62   A(27,29,31)           108.3546         calculate D2E/DX2 analytically  !
 ! A63   A(27,29,33)           114.3215         calculate D2E/DX2 analytically  !
 ! A64   A(30,29,31)           106.6143         calculate D2E/DX2 analytically  !
 ! A65   A(30,29,33)           109.8099         calculate D2E/DX2 analytically  !
 ! A66   A(31,29,33)           108.4358         calculate D2E/DX2 analytically  !
 ! A67   A(33,32,34)           106.4803         calculate D2E/DX2 analytically  !
 ! A68   A(33,32,43)           138.7549         calculate D2E/DX2 analytically  !
 ! A69   A(34,32,43)           114.7128         calculate D2E/DX2 analytically  !
 ! A70   A(29,33,32)           125.3153         calculate D2E/DX2 analytically  !
 ! A71   A(29,33,38)           126.4019         calculate D2E/DX2 analytically  !
 ! A72   A(32,33,38)           108.2564         calculate D2E/DX2 analytically  !
 ! A73   A(32,34,35)           125.8548         calculate D2E/DX2 analytically  !
 ! A74   A(32,34,36)           110.5612         calculate D2E/DX2 analytically  !
 ! A75   A(35,34,36)           123.5717         calculate D2E/DX2 analytically  !
 ! A76   A(34,36,37)           125.4084         calculate D2E/DX2 analytically  !
 ! A77   A(34,36,38)           108.2668         calculate D2E/DX2 analytically  !
 ! A78   A(37,36,38)           126.3172         calculate D2E/DX2 analytically  !
 ! A79   A(33,38,36)           106.4335         calculate D2E/DX2 analytically  !
 ! A80   A(33,38,39)           131.1186         calculate D2E/DX2 analytically  !
 ! A81   A(36,38,39)           122.4409         calculate D2E/DX2 analytically  !
 ! A82   A(27,40,41)           124.455          calculate D2E/DX2 analytically  !
 ! A83   A(27,40,42)           115.9606         calculate D2E/DX2 analytically  !
 ! A84   A(41,40,42)           119.4959         calculate D2E/DX2 analytically  !
 ! A85   A(40,42,51)           113.6456         calculate D2E/DX2 analytically  !
 ! A86   A(6,43,19)            104.2877         calculate D2E/DX2 analytically  !
 ! A87   A(6,43,32)            103.6197         calculate D2E/DX2 analytically  !
 ! A88   A(19,43,32)           149.1027         calculate D2E/DX2 analytically  !
 ! A89   A(45,44,46)           107.914          calculate D2E/DX2 analytically  !
 ! A90   A(45,44,48)           115.8793         calculate D2E/DX2 analytically  !
 ! A91   A(46,44,48)           107.8017         calculate D2E/DX2 analytically  !
 ! A92   A(44,46,50)           142.6903         calculate D2E/DX2 analytically  !
 ! A93   A(48,47,68)           111.2632         calculate D2E/DX2 analytically  !
 ! A94   A(50,49,69)           150.9316         calculate D2E/DX2 analytically  !
 ! A95   A(46,50,49)            93.2588         calculate D2E/DX2 analytically  !
 ! A96   A(46,50,51)            90.9495         calculate D2E/DX2 analytically  !
 ! A97   A(46,50,52)           125.1572         calculate D2E/DX2 analytically  !
 ! A98   A(49,50,51)           121.7061         calculate D2E/DX2 analytically  !
 ! A99   A(49,50,52)           107.3622         calculate D2E/DX2 analytically  !
 ! A100  A(51,50,52)           116.7655         calculate D2E/DX2 analytically  !
 ! A101  A(59,58,63)           119.4673         calculate D2E/DX2 analytically  !
 ! A102  A(59,58,67)           118.3998         calculate D2E/DX2 analytically  !
 ! A103  A(63,58,67)           122.1315         calculate D2E/DX2 analytically  !
 ! A104  A(58,59,60)           120.2608         calculate D2E/DX2 analytically  !
 ! A105  A(58,59,64)           118.2197         calculate D2E/DX2 analytically  !
 ! A106  A(60,59,64)           121.4898         calculate D2E/DX2 analytically  !
 ! A107  A(59,60,61)           121.3547         calculate D2E/DX2 analytically  !
 ! A108  A(59,60,65)           119.5878         calculate D2E/DX2 analytically  !
 ! A109  A(61,60,65)           119.0381         calculate D2E/DX2 analytically  !
 ! A110  A(60,61,62)           117.2011         calculate D2E/DX2 analytically  !
 ! A111  A(60,61,77)           124.3531         calculate D2E/DX2 analytically  !
 ! A112  A(62,61,77)           118.4443         calculate D2E/DX2 analytically  !
 ! A113  A(61,62,63)           122.7129         calculate D2E/DX2 analytically  !
 ! A114  A(61,62,83)           121.0133         calculate D2E/DX2 analytically  !
 ! A115  A(63,62,83)           116.2735         calculate D2E/DX2 analytically  !
 ! A116  A(58,63,62)           118.9831         calculate D2E/DX2 analytically  !
 ! A117  A(58,63,66)           121.1793         calculate D2E/DX2 analytically  !
 ! A118  A(62,63,66)           119.8333         calculate D2E/DX2 analytically  !
 ! A119  A(58,67,68)           109.7408         calculate D2E/DX2 analytically  !
 ! A120  A(58,67,89)           111.9689         calculate D2E/DX2 analytically  !
 ! A121  A(68,67,89)           127.8515         calculate D2E/DX2 analytically  !
 ! A122  A(47,68,67)            89.0528         calculate D2E/DX2 analytically  !
 ! A123  A(47,68,69)           120.6401         calculate D2E/DX2 analytically  !
 ! A124  A(47,68,70)           115.5095         calculate D2E/DX2 analytically  !
 ! A125  A(67,68,69)           100.9009         calculate D2E/DX2 analytically  !
 ! A126  A(67,68,70)            81.9406         calculate D2E/DX2 analytically  !
 ! A127  A(69,68,70)           123.7896         calculate D2E/DX2 analytically  !
 ! A128  A(49,69,68)           119.8694         calculate D2E/DX2 analytically  !
 ! A129  A(68,70,71)           108.4993         calculate D2E/DX2 analytically  !
 ! A130  A(68,70,72)           107.795          calculate D2E/DX2 analytically  !
 ! A131  A(68,70,73)           112.4608         calculate D2E/DX2 analytically  !
 ! A132  A(71,70,72)           108.3155         calculate D2E/DX2 analytically  !
 ! A133  A(71,70,73)           109.5993         calculate D2E/DX2 analytically  !
 ! A134  A(72,70,73)           110.0633         calculate D2E/DX2 analytically  !
 ! A135  A(75,74,82)           125.9687         calculate D2E/DX2 analytically  !
 ! A136  A(75,74,83)           117.026          calculate D2E/DX2 analytically  !
 ! A137  A(82,74,83)           117.0044         calculate D2E/DX2 analytically  !
 ! A138  A(74,75,76)           115.6934         calculate D2E/DX2 analytically  !
 ! A139  A(74,75,77)           122.2504         calculate D2E/DX2 analytically  !
 ! A140  A(76,75,77)           122.0561         calculate D2E/DX2 analytically  !
 ! A141  A(61,77,75)           118.8655         calculate D2E/DX2 analytically  !
 ! A142  A(61,77,78)           119.7216         calculate D2E/DX2 analytically  !
 ! A143  A(75,77,78)           121.4088         calculate D2E/DX2 analytically  !
 ! A144  A(77,78,79)           110.5977         calculate D2E/DX2 analytically  !
 ! A145  A(77,78,80)           110.2788         calculate D2E/DX2 analytically  !
 ! A146  A(77,78,81)           110.8543         calculate D2E/DX2 analytically  !
 ! A147  A(79,78,80)           107.4304         calculate D2E/DX2 analytically  !
 ! A148  A(79,78,81)           108.7937         calculate D2E/DX2 analytically  !
 ! A149  A(80,78,81)           108.7959         calculate D2E/DX2 analytically  !
 ! A150  A(62,83,74)           122.3952         calculate D2E/DX2 analytically  !
 ! A151  A(11,84,85)           104.1338         calculate D2E/DX2 analytically  !
 ! A152  A(11,84,86)           117.9239         calculate D2E/DX2 analytically  !
 ! A153  A(85,84,86)           112.0384         calculate D2E/DX2 analytically  !
 ! A154  A(85,87,88)           110.4318         calculate D2E/DX2 analytically  !
 ! A155  A(85,87,89)           120.8477         calculate D2E/DX2 analytically  !
 ! A156  A(88,87,89)           115.2107         calculate D2E/DX2 analytically  !
 ! A157  L(10,11,84,55,-1)     183.9126         calculate D2E/DX2 analytically  !
 ! A158  L(44,48,47,14,-1)     180.179          calculate D2E/DX2 analytically  !
 ! A159  L(42,51,50,6,-1)      176.1668         calculate D2E/DX2 analytically  !
 ! A160  L(84,85,87,5,-1)      175.5992         calculate D2E/DX2 analytically  !
 ! A161  L(67,89,87,1,-1)      181.4605         calculate D2E/DX2 analytically  !
 ! A162  L(10,11,84,55,-2)     191.224          calculate D2E/DX2 analytically  !
 ! A163  L(44,48,47,14,-2)     173.0667         calculate D2E/DX2 analytically  !
 ! A164  L(42,51,50,6,-2)      191.0363         calculate D2E/DX2 analytically  !
 ! A165  L(84,85,87,5,-2)      178.0599         calculate D2E/DX2 analytically  !
 ! A166  L(67,89,87,1,-2)      182.3385         calculate D2E/DX2 analytically  !
 ! D1    D(2,1,3,4)             58.6992         calculate D2E/DX2 analytically  !
 ! D2    D(2,1,3,5)            -57.0183         calculate D2E/DX2 analytically  !
 ! D3    D(2,1,3,7)           -179.5639         calculate D2E/DX2 analytically  !
 ! D4    D(53,1,3,4)           178.7891         calculate D2E/DX2 analytically  !
 ! D5    D(53,1,3,5)            63.0715         calculate D2E/DX2 analytically  !
 ! D6    D(53,1,3,7)           -59.4741         calculate D2E/DX2 analytically  !
 ! D7    D(54,1,3,4)           -60.9773         calculate D2E/DX2 analytically  !
 ! D8    D(54,1,3,5)          -176.6948         calculate D2E/DX2 analytically  !
 ! D9    D(54,1,3,7)            60.7596         calculate D2E/DX2 analytically  !
 ! D10   D(1,3,7,6)            170.1092         calculate D2E/DX2 analytically  !
 ! D11   D(1,3,7,12)           -12.0287         calculate D2E/DX2 analytically  !
 ! D12   D(4,3,7,6)            -67.6192         calculate D2E/DX2 analytically  !
 ! D13   D(4,3,7,12)           110.243          calculate D2E/DX2 analytically  !
 ! D14   D(5,3,7,6)             47.5424         calculate D2E/DX2 analytically  !
 ! D15   D(5,3,7,12)          -134.5954         calculate D2E/DX2 analytically  !
 ! D16   D(8,6,7,3)            177.7694         calculate D2E/DX2 analytically  !
 ! D17   D(8,6,7,12)            -0.4932         calculate D2E/DX2 analytically  !
 ! D18   D(43,6,7,3)             5.9345         calculate D2E/DX2 analytically  !
 ! D19   D(43,6,7,12)         -172.3281         calculate D2E/DX2 analytically  !
 ! D20   D(7,6,8,9)           -178.7648         calculate D2E/DX2 analytically  !
 ! D21   D(7,6,8,10)             0.3546         calculate D2E/DX2 analytically  !
 ! D22   D(43,6,8,9)            -6.3849         calculate D2E/DX2 analytically  !
 ! D23   D(43,6,8,10)          172.7345         calculate D2E/DX2 analytically  !
 ! D24   D(7,6,43,19)           73.0107         calculate D2E/DX2 analytically  !
 ! D25   D(7,6,43,32)          -93.5956         calculate D2E/DX2 analytically  !
 ! D26   D(8,6,43,19)          -97.5287         calculate D2E/DX2 analytically  !
 ! D27   D(8,6,43,32)           95.865          calculate D2E/DX2 analytically  !
 ! D28   D(3,7,12,10)         -177.6653         calculate D2E/DX2 analytically  !
 ! D29   D(3,7,12,13)            2.4785         calculate D2E/DX2 analytically  !
 ! D30   D(6,7,12,10)            0.4529         calculate D2E/DX2 analytically  !
 ! D31   D(6,7,12,13)         -179.4033         calculate D2E/DX2 analytically  !
 ! D32   D(6,8,10,11)          176.7569         calculate D2E/DX2 analytically  !
 ! D33   D(6,8,10,12)           -0.0763         calculate D2E/DX2 analytically  !
 ! D34   D(9,8,10,11)           -4.1072         calculate D2E/DX2 analytically  !
 ! D35   D(9,8,10,12)          179.0597         calculate D2E/DX2 analytically  !
 ! D36   D(8,10,84,85)         -10.8219         calculate D2E/DX2 analytically  !
 ! D37   D(8,10,84,86)         112.7087         calculate D2E/DX2 analytically  !
 ! D38   D(12,10,84,85)        159.744          calculate D2E/DX2 analytically  !
 ! D39   D(12,10,84,86)        -76.7254         calculate D2E/DX2 analytically  !
 ! D40   D(8,10,12,7)           -0.2393         calculate D2E/DX2 analytically  !
 ! D41   D(8,10,12,13)         179.6319         calculate D2E/DX2 analytically  !
 ! D42   D(11,10,12,7)        -176.7789         calculate D2E/DX2 analytically  !
 ! D43   D(11,10,12,13)          3.0924         calculate D2E/DX2 analytically  !
 ! D44   D(15,14,16,17)        -64.5901         calculate D2E/DX2 analytically  !
 ! D45   D(15,14,16,18)        179.0673         calculate D2E/DX2 analytically  !
 ! D46   D(15,14,16,20)         57.1332         calculate D2E/DX2 analytically  !
 ! D47   D(55,14,16,17)         54.5825         calculate D2E/DX2 analytically  !
 ! D48   D(55,14,16,18)        -61.7601         calculate D2E/DX2 analytically  !
 ! D49   D(55,14,16,20)        176.3058         calculate D2E/DX2 analytically  !
 ! D50   D(56,14,16,17)        174.633          calculate D2E/DX2 analytically  !
 ! D51   D(56,14,16,18)         58.2905         calculate D2E/DX2 analytically  !
 ! D52   D(56,14,16,20)        -63.6436         calculate D2E/DX2 analytically  !
 ! D53   D(14,16,20,19)        179.2517         calculate D2E/DX2 analytically  !
 ! D54   D(14,16,20,25)          0.3066         calculate D2E/DX2 analytically  !
 ! D55   D(17,16,20,19)        -58.6768         calculate D2E/DX2 analytically  !
 ! D56   D(17,16,20,25)        122.3781         calculate D2E/DX2 analytically  !
 ! D57   D(18,16,20,19)         56.9697         calculate D2E/DX2 analytically  !
 ! D58   D(18,16,20,25)       -121.9754         calculate D2E/DX2 analytically  !
 ! D59   D(21,19,20,16)       -178.9306         calculate D2E/DX2 analytically  !
 ! D60   D(21,19,20,25)          0.195          calculate D2E/DX2 analytically  !
 ! D61   D(43,19,20,16)          1.6218         calculate D2E/DX2 analytically  !
 ! D62   D(43,19,20,25)       -179.2525         calculate D2E/DX2 analytically  !
 ! D63   D(20,19,21,22)        178.6163         calculate D2E/DX2 analytically  !
 ! D64   D(20,19,21,23)         -0.183          calculate D2E/DX2 analytically  !
 ! D65   D(43,19,21,22)         -1.8788         calculate D2E/DX2 analytically  !
 ! D66   D(43,19,21,23)        179.3218         calculate D2E/DX2 analytically  !
 ! D67   D(20,19,43,6)          31.2251         calculate D2E/DX2 analytically  !
 ! D68   D(20,19,43,32)       -174.7778         calculate D2E/DX2 analytically  !
 ! D69   D(21,19,43,6)        -148.1507         calculate D2E/DX2 analytically  !
 ! D70   D(21,19,43,32)          5.8463         calculate D2E/DX2 analytically  !
 ! D71   D(16,20,25,23)        178.95           calculate D2E/DX2 analytically  !
 ! D72   D(16,20,25,26)         -0.6931         calculate D2E/DX2 analytically  !
 ! D73   D(19,20,25,23)         -0.1325         calculate D2E/DX2 analytically  !
 ! D74   D(19,20,25,26)       -179.7756         calculate D2E/DX2 analytically  !
 ! D75   D(19,21,23,24)       -179.9216         calculate D2E/DX2 analytically  !
 ! D76   D(19,21,23,25)          0.1022         calculate D2E/DX2 analytically  !
 ! D77   D(22,21,23,24)          1.2564         calculate D2E/DX2 analytically  !
 ! D78   D(22,21,23,25)       -178.7197         calculate D2E/DX2 analytically  !
 ! D79   D(21,23,25,20)          0.0232         calculate D2E/DX2 analytically  !
 ! D80   D(21,23,25,26)        179.7082         calculate D2E/DX2 analytically  !
 ! D81   D(24,23,25,20)       -179.9528         calculate D2E/DX2 analytically  !
 ! D82   D(24,23,25,26)         -0.2677         calculate D2E/DX2 analytically  !
 ! D83   D(28,27,29,30)        178.8295         calculate D2E/DX2 analytically  !
 ! D84   D(28,27,29,31)         63.1735         calculate D2E/DX2 analytically  !
 ! D85   D(28,27,29,33)        -57.864          calculate D2E/DX2 analytically  !
 ! D86   D(40,27,29,30)        -61.6667         calculate D2E/DX2 analytically  !
 ! D87   D(40,27,29,31)       -177.3227         calculate D2E/DX2 analytically  !
 ! D88   D(40,27,29,33)         61.6399         calculate D2E/DX2 analytically  !
 ! D89   D(57,27,29,30)         58.1481         calculate D2E/DX2 analytically  !
 ! D90   D(57,27,29,31)        -57.508          calculate D2E/DX2 analytically  !
 ! D91   D(57,27,29,33)       -178.5454         calculate D2E/DX2 analytically  !
 ! D92   D(28,27,40,41)          9.712          calculate D2E/DX2 analytically  !
 ! D93   D(28,27,40,42)       -173.7377         calculate D2E/DX2 analytically  !
 ! D94   D(29,27,40,41)       -111.2146         calculate D2E/DX2 analytically  !
 ! D95   D(29,27,40,42)         65.3357         calculate D2E/DX2 analytically  !
 ! D96   D(57,27,40,41)        129.2892         calculate D2E/DX2 analytically  !
 ! D97   D(57,27,40,42)        -54.1605         calculate D2E/DX2 analytically  !
 ! D98   D(27,29,33,32)        -93.923          calculate D2E/DX2 analytically  !
 ! D99   D(27,29,33,38)         88.1675         calculate D2E/DX2 analytically  !
 ! D100  D(30,29,33,32)         28.9531         calculate D2E/DX2 analytically  !
 ! D101  D(30,29,33,38)       -148.9564         calculate D2E/DX2 analytically  !
 ! D102  D(31,29,33,32)        145.0845         calculate D2E/DX2 analytically  !
 ! D103  D(31,29,33,38)        -32.825          calculate D2E/DX2 analytically  !
 ! D104  D(34,32,33,29)       -177.9713         calculate D2E/DX2 analytically  !
 ! D105  D(34,32,33,38)          0.2571         calculate D2E/DX2 analytically  !
 ! D106  D(43,32,33,29)         -0.8969         calculate D2E/DX2 analytically  !
 ! D107  D(43,32,33,38)        177.3314         calculate D2E/DX2 analytically  !
 ! D108  D(33,32,34,35)        178.3363         calculate D2E/DX2 analytically  !
 ! D109  D(33,32,34,36)         -0.4221         calculate D2E/DX2 analytically  !
 ! D110  D(43,32,34,35)          0.4591         calculate D2E/DX2 analytically  !
 ! D111  D(43,32,34,36)       -178.2992         calculate D2E/DX2 analytically  !
 ! D112  D(33,32,43,6)        -143.249          calculate D2E/DX2 analytically  !
 ! D113  D(33,32,43,19)         62.6732         calculate D2E/DX2 analytically  !
 ! D114  D(34,32,43,6)          33.6625         calculate D2E/DX2 analytically  !
 ! D115  D(34,32,43,19)       -120.4153         calculate D2E/DX2 analytically  !
 ! D116  D(29,33,38,36)        178.1998         calculate D2E/DX2 analytically  !
 ! D117  D(29,33,38,39)         -0.8297         calculate D2E/DX2 analytically  !
 ! D118  D(32,33,38,36)         -0.0041         calculate D2E/DX2 analytically  !
 ! D119  D(32,33,38,39)       -179.0336         calculate D2E/DX2 analytically  !
 ! D120  D(32,34,36,37)        179.4737         calculate D2E/DX2 analytically  !
 ! D121  D(32,34,36,38)          0.4286         calculate D2E/DX2 analytically  !
 ! D122  D(35,34,36,37)          0.6816         calculate D2E/DX2 analytically  !
 ! D123  D(35,34,36,38)       -178.3636         calculate D2E/DX2 analytically  !
 ! D124  D(34,36,38,33)         -0.2506         calculate D2E/DX2 analytically  !
 ! D125  D(34,36,38,39)        178.883          calculate D2E/DX2 analytically  !
 ! D126  D(37,36,38,33)       -179.2847         calculate D2E/DX2 analytically  !
 ! D127  D(37,36,38,39)         -0.1511         calculate D2E/DX2 analytically  !
 ! D128  D(27,40,42,51)          8.0324         calculate D2E/DX2 analytically  !
 ! D129  D(41,40,42,51)       -175.2355         calculate D2E/DX2 analytically  !
 ! D130  D(40,42,50,46)       -161.8187         calculate D2E/DX2 analytically  !
 ! D131  D(40,42,50,49)        -69.8439         calculate D2E/DX2 analytically  !
 ! D132  D(40,42,50,52)         69.2628         calculate D2E/DX2 analytically  !
 ! D133  D(45,44,46,50)        135.354          calculate D2E/DX2 analytically  !
 ! D134  D(48,44,46,50)          9.5099         calculate D2E/DX2 analytically  !
 ! D135  D(45,44,47,68)        -78.8945         calculate D2E/DX2 analytically  !
 ! D136  D(46,44,47,68)         43.4847         calculate D2E/DX2 analytically  !
 ! D137  D(44,46,50,49)        -55.2994         calculate D2E/DX2 analytically  !
 ! D138  D(44,46,50,51)         66.5324         calculate D2E/DX2 analytically  !
 ! D139  D(44,46,50,52)       -169.2337         calculate D2E/DX2 analytically  !
 ! D140  D(48,47,68,67)         95.5432         calculate D2E/DX2 analytically  !
 ! D141  D(48,47,68,69)         -6.5811         calculate D2E/DX2 analytically  !
 ! D142  D(48,47,68,70)        176.1474         calculate D2E/DX2 analytically  !
 ! D143  D(69,49,50,46)         49.6069         calculate D2E/DX2 analytically  !
 ! D144  D(69,49,50,51)        -43.5279         calculate D2E/DX2 analytically  !
 ! D145  D(69,49,50,52)        178.0757         calculate D2E/DX2 analytically  !
 ! D146  D(50,49,69,68)         22.9752         calculate D2E/DX2 analytically  !
 ! D147  D(63,58,59,60)          1.1676         calculate D2E/DX2 analytically  !
 ! D148  D(63,58,59,64)        179.2146         calculate D2E/DX2 analytically  !
 ! D149  D(67,58,59,60)       -179.2406         calculate D2E/DX2 analytically  !
 ! D150  D(67,58,59,64)         -1.1936         calculate D2E/DX2 analytically  !
 ! D151  D(59,58,63,62)         -1.7013         calculate D2E/DX2 analytically  !
 ! D152  D(59,58,63,66)        179.0531         calculate D2E/DX2 analytically  !
 ! D153  D(67,58,63,62)        178.7228         calculate D2E/DX2 analytically  !
 ! D154  D(67,58,63,66)         -0.5228         calculate D2E/DX2 analytically  !
 ! D155  D(59,58,67,68)        -46.636          calculate D2E/DX2 analytically  !
 ! D156  D(59,58,67,89)        165.3978         calculate D2E/DX2 analytically  !
 ! D157  D(63,58,67,68)        132.9443         calculate D2E/DX2 analytically  !
 ! D158  D(63,58,67,89)        -15.0219         calculate D2E/DX2 analytically  !
 ! D159  D(58,59,60,61)         -0.305          calculate D2E/DX2 analytically  !
 ! D160  D(58,59,60,65)        178.0818         calculate D2E/DX2 analytically  !
 ! D161  D(64,59,60,61)       -178.2869         calculate D2E/DX2 analytically  !
 ! D162  D(64,59,60,65)          0.0999         calculate D2E/DX2 analytically  !
 ! D163  D(59,60,61,62)         -0.0051         calculate D2E/DX2 analytically  !
 ! D164  D(59,60,61,77)        179.5497         calculate D2E/DX2 analytically  !
 ! D165  D(65,60,61,62)       -178.4006         calculate D2E/DX2 analytically  !
 ! D166  D(65,60,61,77)          1.1543         calculate D2E/DX2 analytically  !
 ! D167  D(60,61,62,63)         -0.5726         calculate D2E/DX2 analytically  !
 ! D168  D(60,61,62,83)        179.6453         calculate D2E/DX2 analytically  !
 ! D169  D(77,61,62,63)        179.8454         calculate D2E/DX2 analytically  !
 ! D170  D(77,61,62,83)          0.0633         calculate D2E/DX2 analytically  !
 ! D171  D(60,61,77,75)       -179.352          calculate D2E/DX2 analytically  !
 ! D172  D(60,61,77,78)          1.3731         calculate D2E/DX2 analytically  !
 ! D173  D(62,61,77,75)          0.1977         calculate D2E/DX2 analytically  !
 ! D174  D(62,61,77,78)       -179.0771         calculate D2E/DX2 analytically  !
 ! D175  D(61,62,63,58)          1.4373         calculate D2E/DX2 analytically  !
 ! D176  D(61,62,63,66)       -179.3067         calculate D2E/DX2 analytically  !
 ! D177  D(83,62,63,58)       -178.771          calculate D2E/DX2 analytically  !
 ! D178  D(83,62,63,66)          0.4851         calculate D2E/DX2 analytically  !
 ! D179  D(61,62,83,74)         -0.6417         calculate D2E/DX2 analytically  !
 ! D180  D(63,62,83,74)        179.5627         calculate D2E/DX2 analytically  !
 ! D181  D(58,67,68,47)        -41.1313         calculate D2E/DX2 analytically  !
 ! D182  D(58,67,68,69)         79.9261         calculate D2E/DX2 analytically  !
 ! D183  D(58,67,68,70)       -157.0668         calculate D2E/DX2 analytically  !
 ! D184  D(89,67,68,47)        100.3349         calculate D2E/DX2 analytically  !
 ! D185  D(89,67,68,69)       -138.6077         calculate D2E/DX2 analytically  !
 ! D186  D(89,67,68,70)        -15.6005         calculate D2E/DX2 analytically  !
 ! D187  D(58,67,87,85)         48.6335         calculate D2E/DX2 analytically  !
 ! D188  D(58,67,87,88)       -173.3249         calculate D2E/DX2 analytically  !
 ! D189  D(68,67,87,85)        -92.5037         calculate D2E/DX2 analytically  !
 ! D190  D(68,67,87,88)         45.5379         calculate D2E/DX2 analytically  !
 ! D191  D(47,68,69,49)        -48.2064         calculate D2E/DX2 analytically  !
 ! D192  D(67,68,69,49)       -143.6296         calculate D2E/DX2 analytically  !
 ! D193  D(70,68,69,49)        128.8303         calculate D2E/DX2 analytically  !
 ! D194  D(47,68,70,71)        117.2045         calculate D2E/DX2 analytically  !
 ! D195  D(47,68,70,72)       -125.704          calculate D2E/DX2 analytically  !
 ! D196  D(47,68,70,73)         -4.1997         calculate D2E/DX2 analytically  !
 ! D197  D(67,68,70,71)       -157.7329         calculate D2E/DX2 analytically  !
 ! D198  D(67,68,70,72)        -40.6413         calculate D2E/DX2 analytically  !
 ! D199  D(67,68,70,73)         80.863          calculate D2E/DX2 analytically  !
 ! D200  D(69,68,70,71)        -59.9707         calculate D2E/DX2 analytically  !
 ! D201  D(69,68,70,72)         57.1208         calculate D2E/DX2 analytically  !
 ! D202  D(69,68,70,73)        178.6252         calculate D2E/DX2 analytically  !
 ! D203  D(82,74,75,76)         -0.2965         calculate D2E/DX2 analytically  !
 ! D204  D(82,74,75,77)        179.7384         calculate D2E/DX2 analytically  !
 ! D205  D(83,74,75,76)        179.343          calculate D2E/DX2 analytically  !
 ! D206  D(83,74,75,77)         -0.6221         calculate D2E/DX2 analytically  !
 ! D207  D(75,74,83,62)          0.8972         calculate D2E/DX2 analytically  !
 ! D208  D(82,74,83,62)       -179.4302         calculate D2E/DX2 analytically  !
 ! D209  D(74,75,77,61)          0.0876         calculate D2E/DX2 analytically  !
 ! D210  D(74,75,77,78)        179.3498         calculate D2E/DX2 analytically  !
 ! D211  D(76,75,77,61)       -179.8753         calculate D2E/DX2 analytically  !
 ! D212  D(76,75,77,78)         -0.6131         calculate D2E/DX2 analytically  !
 ! D213  D(61,77,78,79)        -59.1956         calculate D2E/DX2 analytically  !
 ! D214  D(61,77,78,80)         59.4909         calculate D2E/DX2 analytically  !
 ! D215  D(61,77,78,81)       -179.9568         calculate D2E/DX2 analytically  !
 ! D216  D(75,77,78,79)        121.5485         calculate D2E/DX2 analytically  !
 ! D217  D(75,77,78,80)       -119.7651         calculate D2E/DX2 analytically  !
 ! D218  D(75,77,78,81)          0.7873         calculate D2E/DX2 analytically  !
 ! D219  D(11,84,87,88)       -101.5153         calculate D2E/DX2 analytically  !
 ! D220  D(11,84,87,89)         35.7692         calculate D2E/DX2 analytically  !
 ! D221  D(86,84,87,88)        130.9049         calculate D2E/DX2 analytically  !
 ! D222  D(86,84,87,89)        -91.8106         calculate D2E/DX2 analytically  !
 --------------------------------------------------------------------------------
 Trust Radius=1.00D-01 FncErr=1.00D-07 GrdErr=1.00D-06 EigMax=2.50D+02 EigMin=1.00D-04
 Number of steps in this run=    502 maximum allowed number of steps=    534.
 Search for a saddle point of order  1.
 GradGradGradGradGradGradGradGradGradGradGradGradGradGradGradGradGradGrad

 Stoichiometry    C28H43N6O11Zn(1+)
 Framework group  C1[X(C28H43N6O11Zn)]
 Deg. of freedom   261
 Full point group                 C1      NOp   1
 Largest Abelian subgroup         C1      NOp   1
 Largest concise Abelian subgroup C1      NOp   1
                         Standard orientation:                         
 ---------------------------------------------------------------------
 Center     Atomic      Atomic             Coordinates (Angstroms)
 Number     Number       Type             X           Y           Z
 ---------------------------------------------------------------------
      1          6           0        1.224180    4.459061    3.561483
      2          1           0        1.865159    4.462279    4.441892
      3          6           0        1.360160    3.133095    2.810205
      4          1           0        1.090123    2.304572    3.472477
      5          1           0        2.407758    2.971136    2.542141
      6          7           0        0.624746    2.042941    0.642626
      7          6           0        0.511767    3.059556    1.576671
      8          6           0       -0.308444    2.276711   -0.278022
      9          1           0       -0.499849    1.653999   -1.139734
     10          7           0       -1.002955    3.376405    0.001374
     11          1           0       -1.798953    3.780352   -0.672116
     12          6           0       -0.497231    3.888525    1.169253
     13          1           0       -0.886063    4.789065    1.612001
     14          6           0       -2.991835   -0.571261    2.337630
     15          1           0       -3.027424   -0.399018    3.414673
     16          6           0       -1.606976   -0.233502    1.776538
     17          1           0       -1.410890    0.835904    1.897294
     18          1           0       -1.585488   -0.428497    0.696583
     19          7           0        0.833857   -0.901937    2.104954
     20          6           0       -0.511191   -1.010212    2.438996
     21          6           0        1.495015   -1.747098    2.876591
     22          1           0        2.557433   -1.920597    2.851864
     23          7           0        0.650121   -2.387736    3.688736
     24          1           0        0.909561   -3.082734    4.372898
     25          6           0       -0.623445   -1.938031    3.430372
     26          1           0       -1.479116   -2.314610    3.960956
     27          6           0        5.301072   -2.102004   -0.833261
     28          1           0        6.341157   -1.789478   -0.783871
     29          6           0        4.466612   -1.108521   -1.665356
     30          1           0        3.436921   -1.461628   -1.711865
     31          1           0        4.844645   -1.114693   -2.687571
     32          7           0        3.565955    0.862501   -0.294451
     33          6           0        4.497688    0.299220   -1.157667
     34          6           0        3.924506    2.125946   -0.127350
     35          1           0        3.400760    2.857452    0.465395
     36          7           0        5.031247    2.395498   -0.824315
     37          1           0        5.494249    3.292356   -0.863569
     38          6           0        5.409716    1.257589   -1.485953
     39          1           0        6.268567    1.224796   -2.132653
     40          6           0        4.745312   -2.152814    0.570898
     41          8           0        5.314303   -1.729592    1.544915
     42          8           0        3.507026   -2.647549    0.693685
     43         30           0        1.791793    0.307719    0.709401
     44          8           0       -0.009953   -2.859243   -0.136148
     45          1           0       -0.912170   -3.136251   -0.335898
     46          1           0        0.595605   -3.541882   -0.477392
     47          8           0        0.789497   -0.623915   -1.026317
     48          1           0        0.414261   -1.537398   -0.714855
     49          1           0        1.909007   -3.263261   -2.213512
     50          8           0        2.223749   -3.781353   -1.450945
     51          1           0        3.153299   -3.035883   -0.137476
     52          1           0        2.549367   -4.623382   -1.789816
     53          1           0        1.509633    5.297315    2.924556
     54          1           0        0.196276    4.616391    3.891408
     55          1           0       -3.746972    0.061667    1.874111
     56          1           0       -3.252525   -1.613557    2.145321
     57          1           0        5.240754   -3.091810   -1.289322
     58          6           0       -2.288966   -0.161261   -2.223321
     59          6           0       -2.281744   -1.564751   -2.093660
     60          6           0       -3.246476   -2.196812   -1.342957
     61          6           0       -4.252849   -1.470647   -0.685077
     62          6           0       -4.232742   -0.080086   -0.825078
     63          6           0       -3.267700    0.584020   -1.564385
     64          1           0       -1.520885   -2.124253   -2.624198
     65          1           0       -3.249068   -3.278313   -1.276103
     66          1           0       -3.290135    1.664779   -1.632466
     67          8           0       -1.348245    0.409854   -2.970117
     68          6           0        1.136966   -0.656505   -2.327140
     69          8           0        1.107759   -1.695365   -2.947600
     70          6           0        1.607853    0.641600   -2.900581
     71          1           0        2.645468    0.524246   -3.216855
     72          1           0        1.004336    0.854884   -3.780285
     73          1           0        1.533744    1.460344   -2.190304
     74          6           0       -6.196189    0.174777    0.529015
     75          6           0       -6.222482   -1.263209    0.685353
     76          1           0       -7.026895   -1.653939    1.292291
     77          6           0       -5.301716   -2.067553    0.111351
     78          6           0       -5.338498   -3.551822    0.297343
     79          1           0       -5.418498   -4.057750   -0.666546
     80          1           0       -4.417424   -3.896763    0.772474
     81          1           0       -6.182971   -3.843472    0.917224
     82          8           0       -6.985467    0.955251    1.006845
     83          8           0       -5.178323    0.701272   -0.224829
     84          8           0       -2.651582    4.190979   -1.733135
     85          1           0       -2.319944    3.462939   -2.689335
     86          1           0       -3.600263    4.175232   -1.579971
     87          8           0       -1.959443    2.732605   -3.517083
     88          1           0       -1.381632    3.186526   -4.136641
     89          1           0       -1.584228    1.420047   -3.203216
 ---------------------------------------------------------------------
 Rotational constants (GHZ):           0.0925826           0.0502701           0.0465999
 General basis read from cards:  (5D, 7F)
 ======================================================================================================
                                       Pseudopotential Parameters
 ======================================================================================================
  Center     Atomic      Valence      Angular      Power
  Number     Number     Electrons     Momentum     of R      Exponent        Coefficient   SO-Coeffient
 ======================================================================================================
    1          6
                                   No pseudopotential on this center.
    2          1
                                   No pseudopotential on this center.
    3          6
                                   No pseudopotential on this center.
    4          1
                                   No pseudopotential on this center.
    5          1
                                   No pseudopotential on this center.
    6          7
                                   No pseudopotential on this center.
    7          6
                                   No pseudopotential on this center.
    8          6
                                   No pseudopotential on this center.
    9          1
                                   No pseudopotential on this center.
   10          7
                                   No pseudopotential on this center.
   11          1
                                   No pseudopotential on this center.
   12          6
                                   No pseudopotential on this center.
   13          1
                                   No pseudopotential on this center.
   14          6
                                   No pseudopotential on this center.
   15          1
                                   No pseudopotential on this center.
   16          6
                                   No pseudopotential on this center.
   17          1
                                   No pseudopotential on this center.
   18          1
                                   No pseudopotential on this center.
   19          7
                                   No pseudopotential on this center.
   20          6
                                   No pseudopotential on this center.
   21          6
                                   No pseudopotential on this center.
   22          1
                                   No pseudopotential on this center.
   23          7
                                   No pseudopotential on this center.
   24          1
                                   No pseudopotential on this center.
   25          6
                                   No pseudopotential on this center.
   26          1
                                   No pseudopotential on this center.
   27          6
                                   No pseudopotential on this center.
   28          1
                                   No pseudopotential on this center.
   29          6
                                   No pseudopotential on this center.
   30          1
                                   No pseudopotential on this center.
   31          1
                                   No pseudopotential on this center.
   32          7
                                   No pseudopotential on this center.
   33          6
                                   No pseudopotential on this center.
   34          6
                                   No pseudopotential on this center.
   35          1
                                   No pseudopotential on this center.
   36          7
                                   No pseudopotential on this center.
   37          1
                                   No pseudopotential on this center.
   38          6
                                   No pseudopotential on this center.
   39          1
                                   No pseudopotential on this center.
   40          6
                                   No pseudopotential on this center.
   41          8
                                   No pseudopotential on this center.
   42          8
                                   No pseudopotential on this center.
   43         30           12
                                      F and up 
                                                     1      386.7379660      -18.00000000    0.00000000
                                                     2       72.8587359     -124.35274030    0.00000000
                                                     2       15.9066170      -30.66018220    0.00000000
                                                     2        4.3502340      -10.63589890    0.00000000
                                                     2        1.2842199       -0.76836230    0.00000000
                                      S - F
                                                     0       19.0867858        3.00000000    0.00000000
                                                     1        5.0231080       22.52342250    0.00000000
                                                     2        1.2701744       48.44659420    0.00000000
                                                     2        1.0671287      -44.55601190    0.00000000
                                                     2        0.9264190       12.99839580    0.00000000
                                      P - F
                                                     0       43.4927750        5.00000000    0.00000000
                                                     1       20.8692669       20.74355890    0.00000000
                                                     2       21.7118378       90.30271580    0.00000000
                                                     2        6.3616915       74.66103160    0.00000000
                                                     2        1.2291195        9.88944240    0.00000000
                                      D - F
                                                     2       13.5851800       -4.84903590    0.00000000
                                                     2        9.8373050        3.69133790    0.00000000
                                                     2        0.8373113       -0.50373190    0.00000000
   44          8
                                   No pseudopotential on this center.
   45          1
                                   No pseudopotential on this center.
   46          1
                                   No pseudopotential on this center.
   47          8
                                   No pseudopotential on this center.
   48          1
                                   No pseudopotential on this center.
   49          1
                                   No pseudopotential on this center.
   50          8
                                   No pseudopotential on this center.
   51          1
                                   No pseudopotential on this center.
   52          1
                                   No pseudopotential on this center.
   53          1
                                   No pseudopotential on this center.
   54          1
                                   No pseudopotential on this center.
   55          1
                                   No pseudopotential on this center.
   56          1
                                   No pseudopotential on this center.
   57          1
                                   No pseudopotential on this center.
   58          6
                                   No pseudopotential on this center.
   59          6
                                   No pseudopotential on this center.
   60          6
                                   No pseudopotential on this center.
   61          6
                                   No pseudopotential on this center.
   62          6
                                   No pseudopotential on this center.
   63          6
                                   No pseudopotential on this center.
   64          1
                                   No pseudopotential on this center.
   65          1
                                   No pseudopotential on this center.
   66          1
                                   No pseudopotential on this center.
   67          8
                                   No pseudopotential on this center.
   68          6
                                   No pseudopotential on this center.
   69          8
                                   No pseudopotential on this center.
   70          6
                                   No pseudopotential on this center.
   71          1
                                   No pseudopotential on this center.
   72          1
                                   No pseudopotential on this center.
   73          1
                                   No pseudopotential on this center.
   74          6
                                   No pseudopotential on this center.
   75          6
                                   No pseudopotential on this center.
   76          1
                                   No pseudopotential on this center.
   77          6
                                   No pseudopotential on this center.
   78          6
                                   No pseudopotential on this center.
   79          1
                                   No pseudopotential on this center.
   80          1
                                   No pseudopotential on this center.
   81          1
                                   No pseudopotential on this center.
   82          8
                                   No pseudopotential on this center.
   83          8
                                   No pseudopotential on this center.
   84          8
                                   No pseudopotential on this center.
   85          1
                                   No pseudopotential on this center.
   86          1
                                   No pseudopotential on this center.
   87          8
                                   No pseudopotential on this center.
   88          1
                                   No pseudopotential on this center.
   89          1
                                   No pseudopotential on this center.
 ======================================================================================================
 There are  1178 symmetry adapted cartesian basis functions of A   symmetry.
 There are  1131 symmetry adapted basis functions of A   symmetry.
  1131 basis functions,  1958 primitive gaussians,  1178 cartesian basis functions
   176 alpha electrons      176 beta electrons
       nuclear repulsion energy      6840.6744986026 Hartrees.
 NAtoms=   89 NActive=   89 NUniq=   89 SFac= 1.00D+00 NAtFMM=   60 NAOKFM=T Big=T
 Integral buffers will be    131072 words long.
 Raffenetti 2 integral format.
 Two-electron integral symmetry is turned on.
 Force inversion solution in PCM.
 ------------------------------------------------------------------------------
 Polarizable Continuum Model (PCM)
 =================================
 Model                : PCM.
 Atomic radii         : UFF (Universal Force Field).
 Polarization charges : Total charges.
 Charge compensation  : None.
 Solution method      : Matrix inversion.
 Cavity type          : Scaled VdW (van der Waals Surface) (Alpha=1.100).
 Cavity algorithm     : GePol (No added spheres)
                        Default sphere list used, NSphG=   89.
                        Lebedev-Laikov grids with approx.  5.0 points / Ang**2.
                        Smoothing algorithm: York/Karplus (Gamma=1.0000).
                        Polarization charges: spherical gaussians, with
                                              point-specific exponents (IZeta= 3).
                        Self-potential: point-specific (ISelfS= 7).
                        Self-field    : sphere-specific E.n sum rule (ISelfD= 2).
 1st derivatives      : Analytical E(r).r(x)/FMM algorithm (CHGder, D1EAlg=3).
                        Cavity 1st derivative terms included.
 2nd derivatives      : Analytical E(r).r(xy)/FMM algorithm (CHGder, D2EAlg=3).
                        Cavity 2nd derivative terms included.
 Solvent              : Water, Eps=  78.355300 Eps(inf)=   1.777849
 ------------------------------------------------------------------------------
 One-electron integrals computed using PRISM.
   1 Symmetry operations used in ECPInt.
 ECPInt:  NShTT=  170236 NPrTT=  582707 LenC2=  131570 LenP2D=  282546.
 LDataN:  DoStor=T MaxTD1= 5 Len=  102
 Number of processors reduced to  53 by ecpmxn.
 NBasis=  1131 RedAO= T EigKep=  5.94D-06  NBF=  1131
 NBsUse=  1131 1.00D-06 EigRej= -1.00D+00 NBFU=  1131
 ExpMin= 3.51D-02 ExpMax= 2.70D+04 ExpMxC= 9.22D+02 IAcc=3 IRadAn=         5 AccDes= 0.00D+00
 Harris functional with IExCor= 1009 and IRadAn=       5 diagonalized for initial guess.
 HarFok:  IExCor= 1009 AccDes= 0.00D+00 IRadAn=         5 IDoV= 1 UseB2=F ITyADJ=14
 ICtDFT=  3500011 ScaDFX=  1.000000  1.000000  1.000000  1.000000
 FoFCou: FMM=F IPFlag=           0 FMFlag=      100000 FMFlg1=        2001
         NFxFlg=           0 DoJE=T BraDBF=F KetDBF=T FulRan=T
         wScrn=  0.000000 ICntrl=       500 IOpCl=  0 I1Cent=   200000004 NGrid=           0
         NMat0=    1 NMatS0=      1 NMatT0=    0 NMatD0=    1 NMtDS0=    0 NMtDT0=    0
 Petite list used in FoFCou.
 Requested convergence on RMS density matrix=1.00D-08 within 128 cycles.
 Requested convergence on MAX density matrix=1.00D-06.
 Requested convergence on             energy=1.00D-06.
 No special actions if energy rises.
 Inv3:  Mode=1 IEnd=    91543728.
 Iteration    1 A*A^-1 deviation from unit magnitude is 6.66D-15 for   4735.
 Iteration    1 A*A^-1 deviation from orthogonality  is 3.55D-15 for   4735    510.
 Iteration    1 A^-1*A deviation from unit magnitude is 5.55D-15 for   4735.
 Iteration    1 A^-1*A deviation from orthogonality  is 2.35D-14 for   4735   3772.
 Error on total polarization charges =  0.01980
 SCF Done:  E(RM062X) =  -2314.32759885     A.U. after   15 cycles
            NFock= 15  Conv=0.31D-08     -V/T= 1.9834
 DoSCS=F DFT=T ScalE2(SS,OS)=  1.000000  1.000000
 Range of M.O.s used for correlation:     1  1131
 NBasis=  1131 NAE=   176 NBE=   176 NFC=     0 NFV=     0
 NROrb=   1131 NOA=   176 NOB=   176 NVA=   955 NVB=   955

 **** Warning!!: The largest alpha MO coefficient is  0.45830220D+02

 PrsmSu:  requested number of processors reduced to:  44 ShMem   1 Linda.
   1 Symmetry operations used in ECPInt.
 ECPInt:  NShTT=  170236 NPrTT=  582707 LenC2=  131570 LenP2D=  282546.
 LDataN:  DoStor=T MaxTD1= 6 Len=  172
 Number of processors reduced to   6 by ecpmxn.
 Symmetrizing basis deriv contribution to polar:
 IMax=3 JMax=2 DiffMx= 0.00D+00
 G2DrvN: will do    45 centers at a time, making    2 passes.
 Calling FoFCou, ICntrl=  3107 FMM=T I1Cent=   0 AccDes= 0.00D+00.
 Calling FoFCou, ICntrl=  3107 FMM=T I1Cent=   0 AccDes= 0.00D+00.
 NEqPCM:  Using equilibrium solvation (IEInf=0, Eps=  78.3553, EpsInf=   1.7778)
 G2PCM: DoFxE=T DoFxN=T DoGrad=T DoDP/DQ/DG/TGxP=FFFF NFrqRd=   0 IEInf=0 SqF1=F DoCFld=F IF1Alg=4.
 End of G2Drv F.D. properties file   721 does not exist.
 End of G2Drv F.D. properties file   722 does not exist.
 End of G2Drv F.D. properties file   788 does not exist.
          IDoAtm=11111111111111111111111111111111111111111111111111
          IDoAtm=111111111111111111111111111111111111111
 NEqPCM:  Using equilibrium solvation (IEInf=0, Eps=  78.3553, EpsInf=   1.7778)
          Differentiating once with respect to electric field.
                with respect to dipole field.
          Differentiating once with respect to nuclear coordinates.
 CalDSu exits because no D1Ps are significant.
          There are   270 degrees of freedom in the 1st order CPHF.  IDoFFX=6 NUNeed=     3.
    270 vectors produced by pass  0 Test12= 1.68D-13 1.00D-09 XBig12= 2.64D+02 7.81D+00.
 AX will form    69 AO Fock derivatives at one time.
    270 vectors produced by pass  1 Test12= 1.68D-13 1.00D-09 XBig12= 2.41D+01 4.18D-01.
    267 vectors produced by pass  2 Test12= 1.68D-13 1.00D-09 XBig12= 4.29D-01 7.29D-02.
    267 vectors produced by pass  3 Test12= 1.68D-13 1.00D-09 XBig12= 4.18D-03 6.24D-03.
    267 vectors produced by pass  4 Test12= 1.68D-13 1.00D-09 XBig12= 2.75D-05 2.79D-04.
    267 vectors produced by pass  5 Test12= 1.68D-13 1.00D-09 XBig12= 1.35D-07 1.81D-05.
    194 vectors produced by pass  6 Test12= 1.68D-13 1.00D-09 XBig12= 5.38D-10 8.71D-07.
     28 vectors produced by pass  7 Test12= 1.68D-13 1.00D-09 XBig12= 1.90D-12 7.42D-08.
      7 vectors produced by pass  8 Test12= 1.68D-13 1.00D-09 XBig12= 1.18D-14 6.34D-09.
      4 vectors produced by pass  9 Test12= 1.68D-13 1.00D-09 XBig12= 3.11D-15 1.88D-09.
      4 vectors produced by pass 10 Test12= 1.68D-13 1.00D-09 XBig12= 4.49D-15 3.78D-09.
      2 vectors produced by pass 11 Test12= 1.68D-13 1.00D-09 XBig12= 1.62D-15 1.58D-09.
      2 vectors produced by pass 12 Test12= 1.68D-13 1.00D-09 XBig12= 4.21D-16 1.42D-09.
      1 vectors produced by pass 13 Test12= 1.68D-13 1.00D-09 XBig12= 4.39D-16 1.00D-09.
 InvSVY:  IOpt=1 It=  1 EMax= 1.78D-14
 Solved reduced A of dimension  1850 with   270 vectors.
 Isotropic polarizability for W=    0.000000      561.49 Bohr**3.
 End of Minotr F.D. properties file   721 does not exist.
 End of Minotr F.D. properties file   722 does not exist.
 End of Minotr F.D. properties file   788 does not exist.

 **********************************************************************

            Population analysis using the SCF density.

 **********************************************************************

 Orbital symmetries:
       Occupied  (A) (A) (A) (A) (A) (A) (A) (A) (A) (A) (A) (A)
                 (A) (A) (A) (A) (A) (A) (A) (A) (A) (A) (A) (A)
                 (A) (A) (A) (A) (A) (A) (A) (A) (A) (A) (A) (A)
                 (A) (A) (A) (A) (A) (A) (A) (A) (A) (A) (A) (A)
                 (A) (A) (A) (A) (A) (A) (A) (A) (A) (A) (A) (A)
                 (A) (A) (A) (A) (A) (A) (A) (A) (A) (A) (A) (A)
                 (A) (A) (A) (A) (A) (A) (A) (A) (A) (A) (A) (A)
                 (A) (A) (A) (A) (A) (A) (A) (A) (A) (A) (A) (A)
                 (A) (A) (A) (A) (A) (A) (A) (A) (A) (A) (A) (A)
                 (A) (A) (A) (A) (A) (A) (A) (A) (A) (A) (A) (A)
                 (A) (A) (A) (A) (A) (A) (A) (A) (A) (A) (A) (A)
                 (A) (A) (A) (A) (A) (A) (A) (A) (A) (A) (A) (A)
                 (A) (A) (A) (A) (A) (A) (A) (A) (A) (A) (A) (A)
                 (A) (A) (A) (A) (A) (A) (A) (A) (A) (A) (A) (A)
                 (A) (A) (A) (A) (A) (A) (A) (A)
       Virtual   (A) (A) (A) (A) (A) (A) (A) (A) (A) (A) (A) (A)
                 (A) (A) (A) (A) (A) (A) (A) (A) (A) (A) (A) (A)
                 (A) (A) (A) (A) (A) (A) (A) (A) (A) (A) (A) (A)
                 (A) (A) (A) (A) (A) (A) (A) (A) (A) (A) (A) (A)
                 (A) (A) (A) (A) (A) (A) (A) (A) (A) (A) (A) (A)
                 (A) (A) (A) (A) (A) (A) (A) (A) (A) (A) (A) (A)
                 (A) (A) (A) (A) (A) (A) (A) (A) (A) (A) (A) (A)
                 (A) (A) (A) (A) (A) (A) (A) (A) (A) (A) (A) (A)
                 (A) (A) (A) (A) (A) (A) (A) (A) (A) (A) (A) (A)
                 (A) (A) (A) (A) (A) (A) (A) (A) (A) (A) (A) (A)
                 (A) (A) (A) (A) (A) (A) (A) (A) (A) (A) (A) (A)
                 (A) (A) (A) (A) (A) (A) (A) (A) (A) (A) (A) (A)
                 (A) (A) (A) (A) (A) (A) (A) (A) (A) (A) (A) (A)
                 (A) (A) (A) (A) (A) (A) (A) (A) (A) (A) (A) (A)
                 (A) (A) (A) (A) (A) (A) (A) (A) (A) (A) (A) (A)
                 (A) (A) (A) (A) (A) (A) (A) (A) (A) (A) (A) (A)
                 (A) (A) (A) (A) (A) (A) (A) (A) (A) (A) (A) (A)
                 (A) (A) (A) (A) (A) (A) (A) (A) (A) (A) (A) (A)
                 (A) (A) (A) (A) (A) (A) (A) (A) (A) (A) (A) (A)
                 (A) (A) (A) (A) (A) (A) (A) (A) (A) (A) (A) (A)
                 (A) (A) (A) (A) (A) (A) (A) (A) (A) (A) (A) (A)
                 (A) (A) (A) (A) (A) (A) (A) (A) (A) (A) (A) (A)
                 (A) (A) (A) (A) (A) (A) (A) (A) (A) (A) (A) (A)
                 (A) (A) (A) (A) (A) (A) (A) (A) (A) (A) (A) (A)
                 (A) (A) (A) (A) (A) (A) (A) (A) (A) (A) (A) (A)
                 (A) (A) (A) (A) (A) (A) (A) (A) (A) (A) (A) (A)
                 (A) (A) (A) (A) (A) (A) (A) (A) (A) (A) (A) (A)
                 (A) (A) (A) (A) (A) (A) (A) (A) (A) (A) (A) (A)
                 (A) (A) (A) (A) (A) (A) (A) (A) (A) (A) (A) (A)
                 (A) (A) (A) (A) (A) (A) (A) (A) (A) (A) (A) (A)
                 (A) (A) (A) (A) (A) (A) (A) (A) (A) (A) (A) (A)
                 (A) (A) (A) (A) (A) (A) (A) (A) (A) (A) (A) (A)
                 (A) (A) (A) (A) (A) (A) (A) (A) (A) (A) (A) (A)
                 (A) (A) (A) (A) (A) (A) (A) (A) (A) (A) (A) (A)
                 (A) (A) (A) (A) (A) (A) (A) (A) (A) (A) (A) (A)
[...]
 Alpha virt. eigenvalues --    2.84447   2.85046   2.85273   2.85656   2.86000
 Alpha virt. eigenvalues --    2.86243   2.86627   2.86890   2.87074   2.87575
 Alpha virt. eigenvalues --    2.88014   2.88308   2.88856   2.89049   2.89299
 Alpha virt. eigenvalues --    2.89818   2.90285   2.90720   2.90988   2.91417
 Alpha virt. eigenvalues --    2.91885   2.92037   2.92357   2.92569   2.93243
 Alpha virt. eigenvalues --    2.93342   2.93615   2.93860   2.94289   2.94709
 Alpha virt. eigenvalues --    2.94940   2.95156   2.95768   2.95932   2.96475
 Alpha virt. eigenvalues --    2.97022   2.97122   2.97656   2.97942   2.98454
 Alpha virt. eigenvalues --    2.98991   2.99263   2.99707   2.99838   3.00196
 Alpha virt. eigenvalues --    3.00536   3.00915   3.01209   3.01513   3.01689
 Alpha virt. eigenvalues --    3.02202   3.02327   3.02832   3.03233   3.03563
 Alpha virt. eigenvalues --    3.03887   3.04012   3.04418   3.05372   3.05419
 Alpha virt. eigenvalues --    3.05596   3.05761   3.06235   3.06779   3.06892
 Alpha virt. eigenvalues --    3.07275   3.07439   3.08029   3.08194   3.08591
 Alpha virt. eigenvalues --    3.08813   3.08882   3.09431   3.09751   3.10060
 Alpha virt. eigenvalues --    3.10495   3.10824   3.11176   3.11471   3.11750
 Alpha virt. eigenvalues --    3.12174   3.12555   3.12672   3.13117   3.13434
 Alpha virt. eigenvalues --    3.13833   3.14049   3.14595   3.14812   3.15285
 Alpha virt. eigenvalues --    3.15559   3.15730   3.16086   3.16575   3.16929
 Alpha virt. eigenvalues --    3.17303   3.17538   3.17819   3.18005   3.18124
 Alpha virt. eigenvalues --    3.18713   3.19193   3.19528   3.19891   3.20136
 Alpha virt. eigenvalues --    3.20456   3.21015   3.21222   3.21440   3.21531
 Alpha virt. eigenvalues --    3.22374   3.22667   3.22909   3.23236   3.24053
 Alpha virt. eigenvalues --    3.24321   3.24516   3.24704   3.25331   3.25679
 Alpha virt. eigenvalues --    3.25972   3.26169   3.26531   3.26685   3.27236
 Alpha virt. eigenvalues --    3.27316   3.27476   3.27726   3.28477   3.28866
 Alpha virt. eigenvalues --    3.29190   3.29372   3.29828   3.30315   3.30476
 Alpha virt. eigenvalues --    3.30957   3.31234   3.31707   3.32053   3.32300
 Alpha virt. eigenvalues --    3.32629   3.32948   3.33378   3.33752   3.33887
 Alpha virt. eigenvalues --    3.34116   3.34217   3.34792   3.34915   3.35184
 Alpha virt. eigenvalues --    3.35484   3.35693   3.36048   3.36297   3.36420
 Alpha virt. eigenvalues --    3.36626   3.36857   3.37763   3.38005   3.38321
 Alpha virt. eigenvalues --    3.38913   3.39519   3.39787   3.39995   3.40515
 Alpha virt. eigenvalues --    3.40683   3.40917   3.41452   3.41785   3.42335
 Alpha virt. eigenvalues --    3.42481   3.42765   3.43490   3.43733   3.43849
 Alpha virt. eigenvalues --    3.43924   3.44569   3.45112   3.45534   3.45705
 Alpha virt. eigenvalues --    3.45923   3.46082   3.46512   3.46667   3.46906
 Alpha virt. eigenvalues --    3.47310   3.47628   3.47843   3.47936   3.48300
 Alpha virt. eigenvalues --    3.48773   3.49164   3.49368   3.49897   3.50391
 Alpha virt. eigenvalues --    3.50859   3.51306   3.51651   3.52195   3.52664
 Alpha virt. eigenvalues --    3.52986   3.53339   3.53884   3.54036   3.54353
 Alpha virt. eigenvalues --    3.54676   3.55122   3.55297   3.55895   3.55935
 Alpha virt. eigenvalues --    3.56770   3.57083   3.57382   3.57906   3.58368
 Alpha virt. eigenvalues --    3.58609   3.59199   3.59538   3.60074   3.60656
 Alpha virt. eigenvalues --    3.60710   3.61577   3.61821   3.62155   3.62766
 Alpha virt. eigenvalues --    3.63086   3.63769   3.63950   3.64530   3.65373
 Alpha virt. eigenvalues --    3.65833   3.66837   3.67341   3.67801   3.68481
 Alpha virt. eigenvalues --    3.68778   3.69589   3.70188   3.70450   3.70633
 Alpha virt. eigenvalues --    3.70954   3.71247   3.71909   3.72378   3.73276
 Alpha virt. eigenvalues --    3.73440   3.74042   3.74436   3.75303   3.76345
 Alpha virt. eigenvalues --    3.77346   3.77813   3.77969   3.78403   3.79077
 Alpha virt. eigenvalues --    3.79553   3.79898   3.80044   3.80422   3.81191
 Alpha virt. eigenvalues --    3.81930   3.82285   3.82770   3.82884   3.83252
 Alpha virt. eigenvalues --    3.83789   3.84617   3.85475   3.86172   3.87014
 Alpha virt. eigenvalues --    3.88206   3.89495   3.90331   3.90753   3.91058
 Alpha virt. eigenvalues --    3.91799   3.92411   3.93175   3.93552   3.94234
 Alpha virt. eigenvalues --    3.94738   3.95098   3.95528   3.95962   3.96883
 Alpha virt. eigenvalues --    3.97438   3.97870   3.97953   3.98530   3.98725
 Alpha virt. eigenvalues --    3.98900   3.99196   3.99547   3.99896   4.00863
 Alpha virt. eigenvalues --    4.01603   4.02411   4.02997   4.03446   4.04097
 Alpha virt. eigenvalues --    4.05779   4.05926   4.08060   4.09462   4.11013
 Alpha virt. eigenvalues --    4.11093   4.12012   4.12295   4.12574   4.12615
 Alpha virt. eigenvalues --    4.13746   4.15026   4.15535   4.16190   4.16237
 Alpha virt. eigenvalues --    4.16708   4.16828   4.18432   4.18954   4.19472
 Alpha virt. eigenvalues --    4.20986   4.21098   4.21626   4.22498   4.23501
 Alpha virt. eigenvalues --    4.23791   4.25977   4.26370   4.27486   4.27766
 Alpha virt. eigenvalues --    4.28775   4.29286   4.30034   4.31947   4.32430
 Alpha virt. eigenvalues --    4.32933   4.33861   4.34981   4.35391   4.36717
 Alpha virt. eigenvalues --    4.37476   4.38121   4.38585   4.39139   4.39879
 Alpha virt. eigenvalues --    4.40368   4.41198   4.42127   4.42870   4.43394
 Alpha virt. eigenvalues --    4.43680   4.44362   4.45068   4.45838   4.46403
 Alpha virt. eigenvalues --    4.46512   4.47843   4.48951   4.49354   4.49754
 Alpha virt. eigenvalues --    4.50942   4.51324   4.52158   4.54150   4.54682
 Alpha virt. eigenvalues --    4.56495   4.57159   4.57532   4.58395   4.58903
 Alpha virt. eigenvalues --    4.60656   4.61274   4.61741   4.61961   4.62225
 Alpha virt. eigenvalues --    4.63242   4.64508   4.64867   4.65126   4.65242
 Alpha virt. eigenvalues --    4.65863   4.66121   4.66579   4.67587   4.68449
 Alpha virt. eigenvalues --    4.68762   4.68929   4.69915   4.70226   4.70590
 Alpha virt. eigenvalues --    4.72142   4.73924   4.75233   4.76381   4.77132
 Alpha virt. eigenvalues --    4.77795   4.78699   4.80332   4.81060   4.81416
 Alpha virt. eigenvalues --    4.82096   4.82804   4.83539   4.84309   4.84416
 Alpha virt. eigenvalues --    4.84795   4.85133   4.86255   4.86505   4.87274
 Alpha virt. eigenvalues --    4.87498   4.88353   4.88818   4.89315   4.89999
 Alpha virt. eigenvalues --    4.90579   4.91015   4.92496   4.96031   4.98406
 Alpha virt. eigenvalues --    4.98538   4.98715   4.99235   5.00815   5.01192
 Alpha virt. eigenvalues --    5.02617   5.03632   5.04161   5.04896   5.05965
 Alpha virt. eigenvalues --    5.07239   5.09727   5.11000   5.11613   5.12151
 Alpha virt. eigenvalues --    5.12555   5.14797   5.15173   5.15772   5.16383
 Alpha virt. eigenvalues --    5.16574   5.17699   5.18019   5.19702   5.19754
 Alpha virt. eigenvalues --    5.20628   5.21589   5.21829   5.22180   5.22366
 Alpha virt. eigenvalues --    5.22684   5.23588   5.23795   5.24849   5.26319
 Alpha virt. eigenvalues --    5.26517   5.26752   5.27318   5.27819   5.28458
 Alpha virt. eigenvalues --    5.28626   5.30779   5.31278   5.32016   5.33258
 Alpha virt. eigenvalues --    5.33931   5.34185   5.34709   5.34914   5.35371
 Alpha virt. eigenvalues --    5.35644   5.36073   5.36501   5.38110   5.38679
 Alpha virt. eigenvalues --    5.39684   5.40017   5.40237   5.40528   5.41091
 Alpha virt. eigenvalues --    5.41260   5.41630   5.42209   5.42402   5.43151
 Alpha virt. eigenvalues --    5.43926   5.44218   5.45203   5.45379   5.45953
 Alpha virt. eigenvalues --    5.47054   5.48242   5.48413   5.49061   5.49659
 Alpha virt. eigenvalues --    5.49810   5.50392   5.50972   5.51505   5.53635
 Alpha virt. eigenvalues --    5.54795   5.55943   5.56520   5.56995   5.57654
 Alpha virt. eigenvalues --    5.57724   5.58214   5.59193   5.59950   5.61059
 Alpha virt. eigenvalues --    5.62008   5.62051   5.63035   5.64097   5.66500
 Alpha virt. eigenvalues --    5.67742   5.69933   5.75683   5.76815   5.78615
 Alpha virt. eigenvalues --    5.84295   5.84732   5.86214   5.86320   5.87652
 Alpha virt. eigenvalues --    5.89160   5.90217   5.91071   5.93925   5.96352
 Alpha virt. eigenvalues --    5.97591   5.98514   5.98637   5.99725   6.01582
 Alpha virt. eigenvalues --    6.01760   6.02291   6.03461   6.06610   6.08776
 Alpha virt. eigenvalues --    6.13234   6.15056   6.16763   6.17352   6.17657
 Alpha virt. eigenvalues --    6.18695   6.24187   6.24480   6.28818   6.29442
 Alpha virt. eigenvalues --    6.32412   6.34107   6.35837   6.35964   6.36424
 Alpha virt. eigenvalues --    6.36472   6.37739   6.38437   6.39371   6.40117
 Alpha virt. eigenvalues --    6.41162   6.41528   6.44119   6.44942   6.45214
 Alpha virt. eigenvalues --    6.46711   6.48063   6.49578   6.51376   6.53571
 Alpha virt. eigenvalues --    6.54015   6.55311   6.55336   6.59937   6.60342
 Alpha virt. eigenvalues --    6.61156   6.69778   6.72711   6.74976   6.76460
 Alpha virt. eigenvalues --    6.78273   6.78588   6.80432   6.81415   6.82109
 Alpha virt. eigenvalues --    6.82795   6.85065   6.85363   6.86235   6.86527
 Alpha virt. eigenvalues --    6.87834   6.92155   6.94493   6.95383   6.97492
 Alpha virt. eigenvalues --    7.00372   7.02512   7.02899   7.04820   7.06934
 Alpha virt. eigenvalues --    7.07101   7.07401   7.10055   7.11137   7.11590
 Alpha virt. eigenvalues --    7.12578   7.14075   7.14941   7.15404   7.30007
 Alpha virt. eigenvalues --    7.32956   7.33028   7.36953   7.40773   7.45810
 Alpha virt. eigenvalues --   22.48046  22.53109  22.59337  22.60733  22.63173
 Alpha virt. eigenvalues --   22.63845  22.65728  22.67546  22.71431  22.78344
 Alpha virt. eigenvalues --   22.78937  22.81202  22.84549  22.89651  22.98489
 Alpha virt. eigenvalues --   23.01176  23.05492  23.07201  23.11765  23.18303
 Alpha virt. eigenvalues --   23.27746  23.28266  23.29441  23.30904  23.42384
 Alpha virt. eigenvalues --   23.44329  23.51266  23.69654  32.41301  32.42403
 Alpha virt. eigenvalues --   32.63631  32.65371  32.73702  32.78358  43.70457
 Alpha virt. eigenvalues --   43.78809  43.90525  43.92500  44.03424  44.07588
 Alpha virt. eigenvalues --   44.16684  44.19974  44.33790  44.44147  44.62159
 Alpha virt. eigenvalues --   69.26865  69.33971  69.39260  89.03109
          Condensed to atoms (all electrons):
 Mulliken charges:
               1
     1  C   -0.498629
     2  H    0.165217
     3  C   -0.290771
     4  H    0.168543
     5  H    0.170932
     6  N   -0.356562
     7  C    0.033143
     8  C    0.127601
     9  H    0.086821
    10  N   -0.304021
    11  H    0.361200
    12  C   -0.122527
    13  H    0.210252
    14  C   -0.564388
    15  H    0.184396
    16  C   -0.197108
    17  H    0.186342
    18  H    0.078902
    19  N   -0.277395
    20  C    0.082898
    21  C    0.076192
    22  H    0.208744
    23  N   -0.243611
    24  H    0.318050
    25  C   -0.121176
    26  H    0.226216
    27  C   -0.322520
    28  H    0.183233
    29  C   -0.321109
    30  H    0.120506
    31  H    0.205868
    32  N   -0.280373
    33  C    0.045203
    34  C    0.064431
    35  H    0.228716
    36  N   -0.243158
    37  H    0.321675
    38  C   -0.058360
    39  H    0.215754
    40  C    0.415503
    41  O   -0.461471
    42  O   -0.442494
    43  Zn   0.929692
    44  O   -0.698541
    45  H    0.402887
    46  H    0.411710
    47  O   -0.461379
    48  H    0.368022
    49  H    0.406801
    50  O   -0.767918
    51  H    0.411324
    52  H    0.409819
    53  H    0.166445
    54  H    0.163816
    55  H    0.187599
    56  H    0.191139
    57  H    0.215037
    58  C    0.346390
    59  C   -0.350171
    60  C   -0.233286
    61  C    0.133016
    62  C    0.094241
    63  C   -0.200627
    64  H    0.223920
    65  H    0.220797
    66  H    0.131931
    67  O   -0.549462
    68  C    0.395192
    69  O   -0.480433
    70  C   -0.472250
    71  H    0.213328
    72  H    0.206956
    73  H    0.194670
    74  C    0.363004
    75  C   -0.248371
    76  H    0.189510
    77  C    0.013655
    78  C   -0.535132
    79  H    0.199460
    80  H    0.192699
    81  H    0.173514
    82  O   -0.462646
    83  O   -0.250436
    84  O   -0.933422
    85  H    0.419696
    86  H    0.367766
    87  O   -0.877970
    88  H    0.379718
    89  H    0.417627
 Sum of Mulliken charges =   1.00000
 Mulliken charges with hydrogens summed into heavy atoms:
               1
     1  C   -0.003151
     3  C    0.048704
     6  N   -0.356562
     7  C    0.033143
     8  C    0.214421
    10  N    0.057180
    12  C    0.087725
    14  C   -0.001254
    16  C    0.068136
    19  N   -0.277395
    20  C    0.082898
    21  C    0.284936
    23  N    0.074439
    25  C    0.105040
    27  C    0.075749
    29  C    0.005265
    32  N   -0.280373
    33  C    0.045203
    34  C    0.293147
    36  N    0.078518
    38  C    0.157394
    40  C    0.415503
    41  O   -0.461471
    42  O   -0.031170
    43  Zn   0.929692
    44  O    0.116055
    47  O   -0.093358
    50  O    0.048702
    58  C    0.346390
    59  C   -0.126251
    60  C   -0.012489
    61  C    0.133016
    62  C    0.094241
    63  C   -0.068696
    67  O   -0.131835
    68  C    0.395192
    69  O   -0.480433
    70  C    0.142704
    74  C    0.363004
    75  C   -0.058861
    77  C    0.013655
    78  C    0.030542
    82  O   -0.462646
    83  O   -0.250436
    84  O   -0.565656
    87  O   -0.078556
 Electronic spatial extent (au):  <R**2>=          25792.0507
 Charge=              1.0000 electrons
 Dipole moment (field-independent basis, Debye):
    X=             25.2296    Y=            -13.7998    Z=              3.8742  Tot=             29.0168
 Quadrupole moment (field-independent basis, Debye-Ang):
   XX=           -272.3315   YY=           -212.7490   ZZ=           -258.0086
   XY=             67.0672   XZ=            -40.8568   YZ=              3.5132
 Traceless Quadrupole moment (field-independent basis, Debye-Ang):
   XX=            -24.6352   YY=             34.9474   ZZ=            -10.3122
   XY=             67.0672   XZ=            -40.8568   YZ=              3.5132
 Octapole moment (field-independent basis, Debye-Ang**2):
  XXX=            815.0815  YYY=           -281.2995  ZZZ=            160.6082  XYY=            213.8717
  XXY=           -122.6241  XXZ=           -245.0345  XZZ=            139.8016  YZZ=            -84.9309
  YYZ=             39.3728  XYZ=             26.9358
 Hexadecapole moment (field-independent basis, Debye-Ang**3):
 XXXX=         -21245.7448 YYYY=          -7312.1855 ZZZZ=          -5758.6946 XXXY=           2052.8313
 XXXZ=           -827.5320 YYYX=            274.2026 YYYZ=            314.9689 ZZZX=           -157.6158
 ZZZY=           -470.7833 XXYY=          -3647.5435 XXZZ=          -4310.0547 YYZZ=          -1984.6648
 XXYZ=            -19.3126 YYXZ=           -332.7373 ZZXY=             68.2814
 N-N= 7.194117389647D+03 E-N=-2.016610229407D+04  KE= 2.392160238629D+03
 1\1\GINC-C72N05\SP\RM062X\GenECP\C28H43N6O11Zn1(1+)\DONGH_N\11-Aug-202
 4\0\\# geom(allcheck,modredundant) genecp scrf(SMD) m062x\\Title Card 
 Required\\1,1\C,0,1.22418,4.459061,3.561483\H,0,1.8746223295,4.4631557
 954,4.4349411624\C,0,1.3567650087,3.134082834,2.8064605001\H,0,1.09622
 28472,2.3043602357,3.4711064983\H,0,2.4017899067,2.9743934989,2.526076
 6066\N,0,0.6058611604,2.0427117069,0.6453327087\C,0,0.4952595716,3.057
 3623492,1.5818215139\C,0,-0.340028294,2.2701297831,-0.2640260231\H,0,-
 0.5372194055,1.6456914234,-1.1231132409\N,0,-1.0407316192,3.3635205536
 ,0.023764442\H,0,-1.84846663,3.7613435782,-0.6498148433\C,0,-0.5252149
 466,3.8784075185,1.1863202764\H,0,-0.9160697221,4.7752837591,1.6348194
 316\C,0,-2.991835,-0.571261,2.33763\H,0,-3.0263403836,-0.3987521027,3.
 4146919124\C,0,-1.6076590531,-0.2349889011,1.7758814206\H,0,-1.4074802
 02,0.8328619755,1.9019571936\H,0,-1.590416747,-0.4243985681,0.69481532
 73\N,0,0.8337632388,-0.8950856519,2.1102849005\C,0,-0.5129715388,-1.01
 89541922,2.4312512468\C,0,1.4942370536,-1.7543893929,2.8667257879\H,0,
 2.5577229552,-1.9212542485,2.8464049836\N,0,0.6471589148,-2.4172578836
 ,3.6584455011\H,0,0.9060859134,-3.1242233548,4.3304466851\C,0,-0.62713
 26491,-1.9688342196,3.401217683\H,0,-1.4842064941,-2.3606602928,3.9183
 674244\C,0,5.301072,-2.102004,-0.833261\H,0,6.3377760264,-1.7762835887
 ,-0.8001209438\C,0,4.4417110413,-1.1248698218,-1.6593531275\H,0,3.4138
 540088,-1.4859042049,-1.6744906288\H,0,4.7944287539,-1.1449733369,-2.6
 904017202\N,0,3.5335416449,0.8658598401,-0.3247807735\C,0,4.4710322907
 ,0.2911832377,-1.174017571\C,0,3.8794989895,2.1361408463,-0.1860855327
 \H,0,3.3480706599,2.8757545468,0.3897490901\N,0,4.9844465455,2.3996610
 406,-0.8884918636\H,0,5.4394569193,3.299491697,-0.9481337884\C,0,5.373
 9523971,1.2505274475,-1.5240445016\H,0,6.2326912651,1.2117140465,-2.17
 05672096\C,0,4.7652180757,-2.1489169614,0.5781883618\O,0,5.3409871799,
 -1.7088977913,1.5408327874\O,0,3.536702552,-2.6607654161,0.7216404502\
 Zn,0,1.7772725978,0.3099968005,0.7027687188\O,0,0.0039024698,-2.873687
 0456,-0.0993335231\H,0,-0.9061841948,-3.1549307197,-0.2514547859\H,0,0
 .5969519067,-3.5600067659,-0.4542665375\O,0,0.7612683102,-0.6354285276
 ,-1.0183958428\H,0,0.4027702626,-1.5515023676,-0.6959067912\H,0,1.9113
 842665,-3.2794000312,-2.1792594697\O,0,2.230246407,-3.794832589,-1.416
 4684742\H,0,3.1711844803,-3.0475434902,-0.1050638677\H,0,2.5513209797,
 -4.6389380229,-1.7544559744\H,0,1.4995745424,5.2993979187,2.922836395\
 H,0,0.1992576221,4.6118820444,3.9026065506\H,0,-3.7470207634,0.0617742
 608,1.8742372461\H,0,-3.2535800188,-1.6134992585,2.1463187395\H,0,5.24
 62212067,-3.0951135005,-1.2826074459\C,0,-2.3079066337,-0.1978076849,-
 2.2138582358\C,0,-2.2884762549,-1.5992732653,-2.0662314833\C,0,-3.2473
 216055,-2.2296437792,-1.3068518997\C,0,-4.260169942,-1.5036280131,-0.6
 588445297\C,0,-4.2507097706,-0.1147730194,-0.815161945\C,0,-3.29160808
 91,0.5479171992,-1.5634853183\H,0,-1.522222883,-2.1595283448,-2.588030
 772\H,0,-3.23905789,-3.3100311897,-1.2246702896\H,0,-3.3222716774,1.62
 75607163,-1.6434080038\O,0,-1.3731668759,0.3698282856,-2.9713071438\C,
 0,1.1114936635,-0.6801388655,-2.3182455372\O,0,1.0956178197,-1.7272825
 289,-2.9253745036\C,0,1.5692453584,0.6151731669,-2.907943917\H,0,2.624
 4695608,0.5216856206,-3.1700956296\H,0,1.0041938417,0.7843107335,-3.82
 17993213\H,0,1.4379818605,1.4507736594,-2.2262031685\C,0,-6.2147962681
 ,0.1413863776,0.5376738459\C,0,-6.230210538,-1.2948360729,0.7108615367
 \H,0,-7.0310277663,-1.6844057193,1.3232822323\C,0,-5.3035181201,-2.098
 8376022,0.146020335\C,0,-5.3278264755,-3.5808622474,0.3507650761\H,0,-
 5.4032065303,-4.0997464056,-0.6065670766\H,0,-4.4038087045,-3.91157262
 41,0.8303510746\H,0,-6.1697591243,-3.8718465026,0.9743908236\O,0,-7.00
 94451634,0.9215262645,1.0070150952\O,0,-5.2014703035,0.6665422148,-0.2
 232329147\O,0,-2.6993369911,4.1536207463,-1.7048438248\H,0,-2.33217627
 11,3.4260234791,-2.6679259638\H,0,-3.6473907766,4.1107640506,-1.552961
 4999\O,0,-1.9422300894,2.7168980795,-3.4863750942\H,0,-1.3154371746,3.
 1802103876,-4.0490761696\H,0,-1.595147651,1.3827267016,-3.1872555325\\
 Version=ES64L-G16RevA.03\State=1-A\HF=-2476.2251486\RMSD=1.764e-09\Dip
 ole=9.9435092,-5.4037682,1.5010732\Quadrupole=-18.7620873,26.2098974,-
 7.4478101,49.6931307,-30.4751783,2.2645546\PG=C01 [X(C28H43N6O11Zn1)]\
 \@


 BE LIKE A POSTAGE STAMP.  STICK TO ONE THING UNTIL
 YOU GET THERE -- JOSH BILLINGS
 Job cpu time:       0 days 17 hours 54 minutes 24.9 seconds.
 Elapsed time:       0 days  0 hours 13 minutes 38.2 seconds.
 File lengths (MBytes):  RWF=   2140 Int=      0 D2E=      0 Chk=    256 Scr=      1
 Normal termination of Gaussian 16 at Sun Aug 11 18:57:36 2024.
