 Entering Gaussian System, Link 0=g16
 Initial command:
 /share/home/dongh_N/wxy/software/g16/l1.exe "/tmp/Gau-250568.inp" -scrdir="/tmp/"
 Entering Link 1 = /share/home/dongh_N/wxy/software/g16/l1.exe PID=    250569.
  
 Copyright (c) 1988,1990,1992,1993,1995,1998,2003,2009,2016,
            Gaussian, Inc.  All Rights Reserved.
  
 This is part of the Gaussian(R) 16 program.  It is based on
 the Gaussian(R) 09 system (copyright 2009, Gaussian, Inc.),
 the Gaussian(R) 03 system (copyright 2003, Gaussian, Inc.),
 the Gaussian(R) 98 system (copyright 1998, Gaussian, Inc.),
 the Gaussian(R) 94 system (copyright 1995, Gaussian, Inc.),
 the Gaussian 92(TM) system (copyright 1992, Gaussian, Inc.),
 the Gaussian 90(TM) system (copyright 1990, Gaussian, Inc.),
 the Gaussian 88(TM) system (copyright 1988, Gaussian, Inc.),
 the Gaussian 86(TM) system (copyright 1986, Carnegie Mellon
 University), and the Gaussian 82(TM) system (copyright 1983,
 Carnegie Mellon University). Gaussian is a federally registered
 trademark of Gaussian, Inc.
  
 This software contains proprietary and confidential information,
 including trade secrets, belonging to Gaussian, Inc.
  
 This software is provided under written license and may be
 used, copied, transmitted, or stored only in accord with that
 written license.
  
 The following legend is applicable only to US Government
 contracts under FAR:
  
                    RESTRICTED RIGHTS LEGEND
  
 Use, reproduction and disclosure by the US Government is
 subject to restrictions as set forth in subparagraphs (a)
 and (c) of the Commercial Computer Software - Restricted
 Rights clause in FAR 52.227-19.
  
 Gaussian, Inc.
 340 Quinnipiac St., Bldg. 40, Wallingford CT 06492
  
  
 ---------------------------------------------------------------
 Warning -- This program may not be used in any manner that
 competes with the business of Gaussian, Inc. or will provide
 assistance to any competitor of Gaussian, Inc.  The licensee
 of this program is prohibited from giving any competitor of
 Gaussian, Inc. access to this program.  By using this program,
 the user acknowledges that Gaussian, Inc. is engaged in the
 business of creating and licensing software in the field of
 computational chemistry and represents and warrants to the
 licensee that it is not a competitor of Gaussian, Inc. and that
 it will not use this program in any manner prohibited above.
 ---------------------------------------------------------------
  

 Cite this work as:
 Gaussian 16, Revision A.03,
 M. J. Frisch, G. W. Trucks, H. B. Schlegel, G. E. Scuseria, 
 M. A. Robb, J. R. Cheeseman, G. Scalmani, V. Barone, 
 G. A. Petersson, H. Nakatsuji, X. Li, M. Caricato, A. V. Marenich, 
 J. Bloino, B. G. Janesko, R. Gomperts, B. Mennucci, H. P. Hratchian, 
 J. V. Ortiz, A. F. Izmaylov, J. L. Sonnenberg, D. Williams-Young, 
 F. Ding, F. Lipparini, F. Egidi, J. Goings, B. Peng, A. Petrone, 
 T. Henderson, D. Ranasinghe, V. G. Zakrzewski, J. Gao, N. Rega, 
 G. Zheng, W. Liang, M. Hada, M. Ehara, K. Toyota, R. Fukuda, 
 J. Hasegawa, M. Ishida, T. Nakajima, Y. Honda, O. Kitao, H. Nakai, 
 T. Vreven, K. Throssell, J. A. Montgomery, Jr., J. E. Peralta, 
 F. Ogliaro, M. J. Bearpark, J. J. Heyd, E. N. Brothers, K. N. Kudin, 
 V. N. Staroverov, T. A. Keith, R. Kobayashi, J. Normand, 
 K. Raghavachari, A. P. Rendell, J. C. Burant, S. S. Iyengar, 
 J. Tomasi, M. Cossi, J. M. Millam, M. Klene, C. Adamo, R. Cammi, 
 J. W. Ochterski, R. L. Martin, K. Morokuma, O. Farkas, 
 J. B. Foresman, and D. J. Fox, Gaussian, Inc., Wallingford CT, 2016.
 
 ******************************************
 Gaussian 16:  ES64L-G16RevA.03 25-Dec-2016
                23-Aug-2024 
 ******************************************
 %chk=16_2_tsopt_sp.chk
 %mem=64GB
 %nprocshared=80
 Will use up to   80 processors via shared memory.
 ---------------------------------------------------------------
 # opt=(ts,modredundant,noeigen,recalc=3) freq genecp scrf m062x
 ---------------------------------------------------------------
 1/5=1,10=4,11=1,18=120,26=3,38=1,71=3/1,3;
 2/9=110,12=2,17=6,18=5,40=1/2;
 3/5=7,11=2,16=1,17=8,25=1,30=1,70=2201,71=2,74=-55,140=1/1,2,3;
 4//1;
 5/5=2,38=5/2;
 8/6=4,10=90,11=11/1;
 11/6=1,8=1,9=11,15=111,16=1/1,2,10;
 10/6=1/2;
 6/7=2,8=2,9=2,10=2,28=1/1;
 7/10=1,25=1/1,2,3,16;
 1/5=1,10=4,11=1,18=20,26=3,71=3/3(3);
 2/9=110/2;
 7/9=1,25=1,44=-1/16;
 99//99;
 2/9=110/2;
 3/5=7,6=1,11=2,16=1,17=8,25=1,30=1,70=2205,71=2,74=-55,82=7,140=1/1,2,3;
 4/5=5,16=3,69=1/1;
 5/5=2,38=5/2;
 8/6=4,10=90,11=11/1;
 11/6=1,8=1,9=11,15=111,16=1/1,2,10;
 10/6=1/2;
 7/10=1,25=1/1,2,3,16;
 1/5=1,11=1,18=20,26=3,71=3/3(-8);
 2/9=110/2;
 6/7=2,8=2,9=2,10=2,19=2,28=1/1;
 7/9=1,25=1,44=-1/16;
 99/9=1/99;
 -------------------
 Title Card Required
 -------------------
 Symbolic Z-matrix:
 Charge =  1 Multiplicity = 1
 C                    -1.94205   4.22543   2.35842 
 H                    -1.64031   4.46154   3.37905 
 C                    -1.62151   2.76818   2.02172 
 H                    -2.11676   2.10921   2.74032 
 H                    -0.54865   2.58887   2.12489 
 N                    -1.10522   1.80579  -0.24149 
 C                    -2.01213   2.37834   0.62984 
 C                    -1.78248   1.57356  -1.36245 
 H                    -1.37429   1.11513  -2.24737 
 N                    -3.05947   1.93179  -1.27062 
 H                    -3.82811   1.21323  -2.07229 
 C                    -3.22351   2.45227  -0.00801 
 H                    -4.17504   2.81393   0.34339 
 C                    -4.30612  -1.75214   0.55382 
 H                    -4.71727  -1.7918    1.56377 
 C                    -2.99039  -0.97218   0.5198 
 H                    -3.16585   0.05618   0.84305 
 H                    -2.62914  -0.91046  -0.50913 
 N                    -0.60406  -1.10608   1.3762 
 C                    -1.91706  -1.56335   1.37521 
 C                     0.06067  -1.84592   2.24758 
 H                     1.11179  -1.76282   2.46732 
 N                    -0.75106  -2.75037   2.80355 
 H                    -0.48015  -3.43416   3.49493 
 C                    -2.00713  -2.59327   2.26564 
 H                    -2.83804  -3.20761   2.56336 
 C                     4.60206  -1.02193  -0.57791 
 H                     5.5446   -0.49118  -0.46579 
 C                     3.6517   -0.24569  -1.50975 
 H                     2.74138  -0.81924  -1.68131 
 H                     4.14109  -0.13928  -2.47734 
 N                     2.11084   1.3823   -0.31549 
 C                     3.28863   1.10808  -0.98992 
 C                     2.13585   2.66753  -0.00839 
 H                     1.35564   3.20975   0.49942 
 N                     3.27013   3.22666  -0.44456 
 H                     3.52085   4.19933  -0.34245 
 C                     4.01413   2.26001  -1.07078 
 H                     4.96928   2.46845  -1.51911 
 C                     3.99938  -1.18288   0.79748 
 O                     4.46323  -0.68931   1.79448 
 O                     2.86853  -1.89292   0.88647 
 Zn                    0.34486   0.31667   0.14221 
 O                    -1.18802  -3.42415  -1.10484 
 H                    -1.67636  -2.75722  -1.63496 
 H                    -1.57998  -3.40224  -0.22297 
 H                     1.91456  -3.57673  -1.8506 
 O                     1.49634  -2.95775  -1.24141 
 H                     2.53152  -2.27172   0.04266 
 H                     0.57448  -3.27745  -1.09615 
 H                    -1.42054   4.90058   1.67857 
 H                    -3.01227   4.41665   2.26877 
 H                    -5.03744  -1.2662   -0.09102 
 H                    -4.17098  -2.77642   0.19984 
 H                     4.79864  -2.00881  -1.00281 
 O                    -4.03763   0.23904  -2.79182 
 H                    -3.10475  -0.63172  -2.7377 
 H                    -4.89989  -0.15636  -2.63729 
 O                    -2.20066  -1.35435  -2.70545 
 H                    -2.07602  -1.66656  -3.6086 
 O                     0.12428  -0.60827  -1.74292 
 H                     0.68066  -1.40388  -1.81847 
 H                    -1.02779  -0.92845  -2.23387 
 
 Add virtual bond connecting atoms O59        and H57        Dist= 2.19D+00.
 Add virtual bond connecting atoms O56        and H11        Dist= 2.32D+00.
 Add virtual bond connecting atoms H57        and O56        Dist= 2.41D+00.
 Add virtual bond connecting atoms H63        and O61        Dist= 2.44D+00.
 Add virtual bond connecting atoms H11        and N10        Dist= 2.50D+00.
 Add virtual bond connecting atoms O59        and H63        Dist= 2.52D+00.
 Add virtual bond connecting atoms H50        and O44        Dist= 3.34D+00.
 Add virtual bond connecting atoms H49        and O48        Dist= 3.38D+00.
 Add virtual bond connecting atoms O59        and H45        Dist= 3.48D+00.
 Add virtual bond connecting atoms H62        and O48        Dist= 3.49D+00.
 The following ModRedundant input section has been read:
 X      27 F                                                                   
 X       1 F                                                                   
 X      14 F                                                                   
 

 GradGradGradGradGradGradGradGradGradGradGradGradGradGradGradGradGradGrad
 Berny optimization.
 Initialization pass.
                           ----------------------------
                           !    Initial Parameters    !
                           ! (Angstroms and Degrees)  !
 --------------------------                            --------------------------
 ! Name  Definition              Value          Derivative Info.                !
 --------------------------------------------------------------------------------
 ! X1    R(1,-1)                -1.9421         frozen, calculate D2E/DX2 analyt!
 ! Y1    R(1,-2)                 4.2254         frozen, calculate D2E/DX2 analyt!
 ! Z1    R(1,-3)                 2.3584         frozen, calculate D2E/DX2 analyt!
 ! X14   R(14,-1)               -4.3061         frozen, calculate D2E/DX2 analyt!
 ! Y14   R(14,-2)               -1.7521         frozen, calculate D2E/DX2 analyt!
 ! Z14   R(14,-3)                0.5538         frozen, calculate D2E/DX2 analyt!
 ! X27   R(27,-1)                4.6021         frozen, calculate D2E/DX2 analyt!
 ! Y27   R(27,-2)               -1.0219         frozen, calculate D2E/DX2 analyt!
 ! Z27   R(27,-3)               -0.5779         frozen, calculate D2E/DX2 analyt!
 ! R1    R(1,2)                  1.0902         calculate D2E/DX2 analytically  !
 ! R2    R(1,3)                  1.5296         calculate D2E/DX2 analytically  !
 ! R3    R(1,51)                 1.0909         calculate D2E/DX2 analytically  !
 ! R4    R(1,52)                 1.0909         calculate D2E/DX2 analytically  !
 ! R5    R(3,4)                  1.0936         calculate D2E/DX2 analytically  !
 ! R6    R(3,5)                  1.0926         calculate D2E/DX2 analytically  !
 ! R7    R(3,7)                  1.4973         calculate D2E/DX2 analytically  !
 ! R8    R(6,7)                  1.3819         calculate D2E/DX2 analytically  !
 ! R9    R(6,8)                  1.3301         calculate D2E/DX2 analytically  !
 ! R10   R(6,43)                 2.1136         calculate D2E/DX2 analytically  !
 ! R11   R(7,12)                 1.371          calculate D2E/DX2 analytically  !
 ! R12   R(8,9)                  1.077          calculate D2E/DX2 analytically  !
 ! R13   R(8,10)                 1.3295         calculate D2E/DX2 analytically  !
 ! R14   R(10,11)                1.3228         calculate D2E/DX2 analytically  !
 ! R15   R(10,12)                1.3755         calculate D2E/DX2 analytically  !
 ! R16   R(11,56)                1.2291         calculate D2E/DX2 analytically  !
 ! R17   R(12,13)                1.0769         calculate D2E/DX2 analytically  !
 ! R18   R(14,15)                1.0912         calculate D2E/DX2 analytically  !
 ! R19   R(14,16)                1.5299         calculate D2E/DX2 analytically  !
 ! R20   R(14,53)                1.0894         calculate D2E/DX2 analytically  !
 ! R21   R(14,54)                1.0921         calculate D2E/DX2 analytically  !
 ! R22   R(16,17)                1.0921         calculate D2E/DX2 analytically  !
 ! R23   R(16,18)                1.0922         calculate D2E/DX2 analytically  !
 ! R24   R(16,20)                1.4944         calculate D2E/DX2 analytically  !
 ! R25   R(19,20)                1.3903         calculate D2E/DX2 analytically  !
 ! R26   R(19,21)                1.3223         calculate D2E/DX2 analytically  !
 ! R27   R(19,43)                2.1089         calculate D2E/DX2 analytically  !
 ! R28   R(20,25)                1.3645         calculate D2E/DX2 analytically  !
 ! R29   R(21,22)                1.0771         calculate D2E/DX2 analytically  !
 ! R30   R(21,23)                1.3364         calculate D2E/DX2 analytically  !
 ! R31   R(23,24)                1.0094         calculate D2E/DX2 analytically  !
 ! R32   R(23,25)                1.3754         calculate D2E/DX2 analytically  !
 ! R33   R(25,26)                1.0754         calculate D2E/DX2 analytically  !
 ! R34   R(27,28)                1.0875         calculate D2E/DX2 analytically  !
 ! R35   R(27,29)                1.5408         calculate D2E/DX2 analytically  !
 ! R36   R(27,40)                1.5102         calculate D2E/DX2 analytically  !
 ! R37   R(27,55)                1.0923         calculate D2E/DX2 analytically  !
 ! R38   R(29,30)                1.0895         calculate D2E/DX2 analytically  !
 ! R39   R(29,31)                1.0895         calculate D2E/DX2 analytically  !
 ! R40   R(29,33)                1.4949         calculate D2E/DX2 analytically  !
 ! R41   R(32,33)                1.3847         calculate D2E/DX2 analytically  !
 ! R42   R(32,34)                1.3216         calculate D2E/DX2 analytically  !
 ! R43   R(32,43)                2.1128         calculate D2E/DX2 analytically  !
 ! R44   R(33,38)                1.3638         calculate D2E/DX2 analytically  !
 ! R45   R(34,35)                1.0773         calculate D2E/DX2 analytically  !
 ! R46   R(34,36)                1.3377         calculate D2E/DX2 analytically  !
 ! R47   R(36,37)                1.0096         calculate D2E/DX2 analytically  !
 ! R48   R(36,38)                1.3712         calculate D2E/DX2 analytically  !
 ! R49   R(38,39)                1.0755         calculate D2E/DX2 analytically  !
 ! R50   R(40,41)                1.2053         calculate D2E/DX2 analytically  !
 ! R51   R(40,42)                1.3382         calculate D2E/DX2 analytically  !
 ! R52   R(42,49)                0.9844         calculate D2E/DX2 analytically  !
 ! R53   R(43,61)                2.1114         calculate D2E/DX2 analytically  !
 ! R54   R(44,45)                0.982          calculate D2E/DX2 analytically  !
 ! R55   R(44,46)                0.9653         calculate D2E/DX2 analytically  !
 ! R56   R(44,50)                1.7686         calculate D2E/DX2 analytically  !
 ! R57   R(45,59)                1.8409         calculate D2E/DX2 analytically  !
 ! R58   R(47,48)                0.9639         calculate D2E/DX2 analytically  !
 ! R59   R(48,49)                1.7864         calculate D2E/DX2 analytically  !
 ! R60   R(48,50)                0.9865         calculate D2E/DX2 analytically  !
 ! R61   R(48,62)                1.8474         calculate D2E/DX2 analytically  !
 ! R62   R(56,57)                1.2773         calculate D2E/DX2 analytically  !
 ! R63   R(56,58)                0.9611         calculate D2E/DX2 analytically  !
 ! R64   R(57,59)                1.1579         calculate D2E/DX2 analytically  !
 ! R65   R(59,60)                0.9637         calculate D2E/DX2 analytically  !
 ! R66   R(59,63)                1.3339         calculate D2E/DX2 analytically  !
 ! R67   R(61,62)                0.9738         calculate D2E/DX2 analytically  !
 ! R68   R(61,63)                1.2926         calculate D2E/DX2 analytically  !
 ! A1    A(2,1,3)              110.7574         calculate D2E/DX2 analytically  !
 ! A2    A(2,1,51)             108.4873         calculate D2E/DX2 analytically  !
 ! A3    A(2,1,52)             108.0902         calculate D2E/DX2 analytically  !
 ! A4    A(3,1,51)             110.6262         calculate D2E/DX2 analytically  !
 ! A5    A(3,1,52)             110.7631         calculate D2E/DX2 analytically  !
 ! A6    A(51,1,52)            108.0185         calculate D2E/DX2 analytically  !
 ! A7    A(1,3,4)              109.5439         calculate D2E/DX2 analytically  !
 ! A8    A(1,3,5)              109.9575         calculate D2E/DX2 analytically  !
 ! A9    A(1,3,7)              113.4527         calculate D2E/DX2 analytically  !
 ! A10   A(4,3,5)              106.4843         calculate D2E/DX2 analytically  !
 ! A11   A(4,3,7)              109.6224         calculate D2E/DX2 analytically  !
 ! A12   A(5,3,7)              107.5308         calculate D2E/DX2 analytically  !
 ! A13   A(7,6,8)              105.6389         calculate D2E/DX2 analytically  !
 ! A14   A(7,6,43)             128.8814         calculate D2E/DX2 analytically  !
 ! A15   A(8,6,43)             112.2912         calculate D2E/DX2 analytically  !
 ! A16   A(3,7,6)              121.5214         calculate D2E/DX2 analytically  !
 ! A17   A(3,7,12)             130.4617         calculate D2E/DX2 analytically  !
 ! A18   A(6,7,12)             107.9908         calculate D2E/DX2 analytically  !
 ! A19   A(6,8,9)              125.0166         calculate D2E/DX2 analytically  !
 ! A20   A(6,8,10)             112.5711         calculate D2E/DX2 analytically  !
 ! A21   A(9,8,10)             122.3783         calculate D2E/DX2 analytically  !
 ! A22   A(8,10,11)            111.7105         calculate D2E/DX2 analytically  !
 ! A23   A(8,10,12)            106.2548         calculate D2E/DX2 analytically  !
 ! A24   A(11,10,12)           133.8321         calculate D2E/DX2 analytically  !
 ! A25   A(10,11,56)           152.1758         calculate D2E/DX2 analytically  !
 ! A26   A(7,12,10)            107.5341         calculate D2E/DX2 analytically  !
 ! A27   A(7,12,13)            130.3156         calculate D2E/DX2 analytically  !
 ! A28   A(10,12,13)           122.1394         calculate D2E/DX2 analytically  !
 ! A29   A(15,14,16)           111.2943         calculate D2E/DX2 analytically  !
 ! A30   A(15,14,53)           108.1276         calculate D2E/DX2 analytically  !
 ! A31   A(15,14,54)           108.2123         calculate D2E/DX2 analytically  !
 ! A32   A(16,14,53)           109.6795         calculate D2E/DX2 analytically  !
 ! A33   A(16,14,54)           111.3776         calculate D2E/DX2 analytically  !
 ! A34   A(53,14,54)           108.0337         calculate D2E/DX2 analytically  !
 ! A35   A(14,16,17)           109.5899         calculate D2E/DX2 analytically  !
 ! A36   A(14,16,18)           109.5232         calculate D2E/DX2 analytically  !
 ! A37   A(14,16,20)           113.7832         calculate D2E/DX2 analytically  !
 ! A38   A(17,16,18)           106.1856         calculate D2E/DX2 analytically  !
 ! A39   A(17,16,20)           108.5692         calculate D2E/DX2 analytically  !
 ! A40   A(18,16,20)           108.9068         calculate D2E/DX2 analytically  !
 ! A41   A(20,19,21)           106.9288         calculate D2E/DX2 analytically  !
 ! A42   A(20,19,43)           130.2708         calculate D2E/DX2 analytically  !
 ! A43   A(21,19,43)           122.4704         calculate D2E/DX2 analytically  !
 ! A44   A(16,20,19)           123.2693         calculate D2E/DX2 analytically  !
 ! A45   A(16,20,25)           128.6632         calculate D2E/DX2 analytically  !
 ! A46   A(19,20,25)           108.0671         calculate D2E/DX2 analytically  !
 ! A47   A(19,21,22)           125.5818         calculate D2E/DX2 analytically  !
 ! A48   A(19,21,23)           110.3324         calculate D2E/DX2 analytically  !
 ! A49   A(22,21,23)           124.0632         calculate D2E/DX2 analytically  !
 ! A50   A(21,23,24)           125.476          calculate D2E/DX2 analytically  !
 ! A51   A(21,23,25)           108.3419         calculate D2E/DX2 analytically  !
 ! A52   A(24,23,25)           126.1806         calculate D2E/DX2 analytically  !
 ! A53   A(20,25,23)           106.3294         calculate D2E/DX2 analytically  !
 ! A54   A(20,25,26)           131.5202         calculate D2E/DX2 analytically  !
 ! A55   A(23,25,26)           122.1473         calculate D2E/DX2 analytically  !
 ! A56   A(28,27,29)           110.552          calculate D2E/DX2 analytically  !
 ! A57   A(28,27,40)           107.6976         calculate D2E/DX2 analytically  !
 ! A58   A(28,27,55)           108.9698         calculate D2E/DX2 analytically  !
 ! A59   A(29,27,40)           110.9973         calculate D2E/DX2 analytically  !
 ! A60   A(29,27,55)           109.3245         calculate D2E/DX2 analytically  !
 ! A61   A(40,27,55)           109.2563         calculate D2E/DX2 analytically  !
 ! A62   A(27,29,30)           110.2038         calculate D2E/DX2 analytically  !
 ! A63   A(27,29,31)           108.0136         calculate D2E/DX2 analytically  !
 ! A64   A(27,29,33)           113.3114         calculate D2E/DX2 analytically  !
 ! A65   A(30,29,31)           106.6712         calculate D2E/DX2 analytically  !
 ! A66   A(30,29,33)           109.1812         calculate D2E/DX2 analytically  !
 ! A67   A(31,29,33)           109.2363         calculate D2E/DX2 analytically  !
 ! A68   A(33,32,34)           106.8381         calculate D2E/DX2 analytically  !
 ! A69   A(33,32,43)           135.7763         calculate D2E/DX2 analytically  !
 ! A70   A(34,32,43)           117.1269         calculate D2E/DX2 analytically  !
 ! A71   A(29,33,32)           123.7318         calculate D2E/DX2 analytically  !
 ! A72   A(29,33,38)           127.96           calculate D2E/DX2 analytically  !
 ! A73   A(32,33,38)           108.3069         calculate D2E/DX2 analytically  !
 ! A74   A(32,34,35)           125.8215         calculate D2E/DX2 analytically  !
 ! A75   A(32,34,36)           110.288          calculate D2E/DX2 analytically  !
 ! A76   A(35,34,36)           123.8769         calculate D2E/DX2 analytically  !
 ! A77   A(34,36,37)           125.4685         calculate D2E/DX2 analytically  !
 ! A78   A(34,36,38)           108.3209         calculate D2E/DX2 analytically  !
 ! A79   A(37,36,38)           126.2007         calculate D2E/DX2 analytically  !
 ! A80   A(33,38,36)           106.245          calculate D2E/DX2 analytically  !
 ! A81   A(33,38,39)           131.3653         calculate D2E/DX2 analytically  !
 ! A82   A(36,38,39)           122.3862         calculate D2E/DX2 analytically  !
 ! A83   A(27,40,41)           123.7863         calculate D2E/DX2 analytically  !
 ! A84   A(27,40,42)           117.0215         calculate D2E/DX2 analytically  !
 ! A85   A(41,40,42)           119.1738         calculate D2E/DX2 analytically  !
 ! A86   A(40,42,49)           115.8777         calculate D2E/DX2 analytically  !
 ! A87   A(6,43,19)            105.8325         calculate D2E/DX2 analytically  !
 ! A88   A(6,43,32)            100.2984         calculate D2E/DX2 analytically  !
 ! A89   A(6,43,61)             94.2944         calculate D2E/DX2 analytically  !
 ! A90   A(19,43,32)           147.4743         calculate D2E/DX2 analytically  !
 ! A91   A(19,43,61)           100.3629         calculate D2E/DX2 analytically  !
 ! A92   A(32,43,61)            96.5955         calculate D2E/DX2 analytically  !
 ! A93   A(45,44,46)           106.0123         calculate D2E/DX2 analytically  !
 ! A94   A(45,44,50)           116.2247         calculate D2E/DX2 analytically  !
 ! A95   A(46,44,50)           113.4706         calculate D2E/DX2 analytically  !
 ! A96   A(47,48,49)           116.7097         calculate D2E/DX2 analytically  !
 ! A97   A(47,48,50)           106.882          calculate D2E/DX2 analytically  !
 ! A98   A(47,48,62)           122.2945         calculate D2E/DX2 analytically  !
 ! A99   A(49,48,50)           124.0665         calculate D2E/DX2 analytically  !
 ! A100  A(49,48,62)            99.0544         calculate D2E/DX2 analytically  !
 ! A101  A(50,48,62)            84.605          calculate D2E/DX2 analytically  !
 ! A102  A(42,49,48)           164.2194         calculate D2E/DX2 analytically  !
 ! A103  A(44,50,48)           163.2213         calculate D2E/DX2 analytically  !
 ! A104  A(11,56,57)           113.0193         calculate D2E/DX2 analytically  !
 ! A105  A(11,56,58)           112.6365         calculate D2E/DX2 analytically  !
 ! A106  A(57,56,58)           111.5917         calculate D2E/DX2 analytically  !
 ! A107  A(45,59,57)           135.5774         calculate D2E/DX2 analytically  !
 ! A108  A(45,59,60)           105.145          calculate D2E/DX2 analytically  !
 ! A109  A(45,59,63)            77.7202         calculate D2E/DX2 analytically  !
 ! A110  A(57,59,60)           106.0859         calculate D2E/DX2 analytically  !
 ! A111  A(57,59,63)           119.8103         calculate D2E/DX2 analytically  !
 ! A112  A(60,59,63)           108.7258         calculate D2E/DX2 analytically  !
 ! A113  A(43,61,62)           111.5617         calculate D2E/DX2 analytically  !
 ! A114  A(43,61,63)           122.7344         calculate D2E/DX2 analytically  !
 ! A115  A(62,61,63)           106.1047         calculate D2E/DX2 analytically  !
 ! A116  A(48,62,61)           156.2411         calculate D2E/DX2 analytically  !
 ! A117  L(44,45,59,1,-1)      177.2834         calculate D2E/DX2 analytically  !
 ! A118  L(56,57,59,1,-1)      177.776          calculate D2E/DX2 analytically  !
 ! A119  L(59,63,61,1,-1)      182.2636         calculate D2E/DX2 analytically  !
 ! A120  L(44,45,59,1,-2)      166.0223         calculate D2E/DX2 analytically  !
 ! A121  L(56,57,59,1,-2)      184.0572         calculate D2E/DX2 analytically  !
 ! A122  L(59,63,61,1,-2)      175.9646         calculate D2E/DX2 analytically  !
 ! D1    D(2,1,3,4)             57.1581         calculate D2E/DX2 analytically  !
 ! D2    D(2,1,3,5)            -59.537          calculate D2E/DX2 analytically  !
 ! D3    D(2,1,3,7)           -179.9918         calculate D2E/DX2 analytically  !
 ! D4    D(51,1,3,4)           177.4889         calculate D2E/DX2 analytically  !
 ! D5    D(51,1,3,5)            60.7938         calculate D2E/DX2 analytically  !
 ! D6    D(51,1,3,7)           -59.661          calculate D2E/DX2 analytically  !
 ! D7    D(52,1,3,4)           -62.7642         calculate D2E/DX2 analytically  !
 ! D8    D(52,1,3,5)          -179.4594         calculate D2E/DX2 analytically  !
 ! D9    D(52,1,3,7)            60.0858         calculate D2E/DX2 analytically  !
 ! D10   D(1,3,7,6)            126.3022         calculate D2E/DX2 analytically  !
 ! D11   D(1,3,7,12)           -55.7938         calculate D2E/DX2 analytically  !
 ! D12   D(4,3,7,6)           -110.891          calculate D2E/DX2 analytically  !
 ! D13   D(4,3,7,12)            67.013          calculate D2E/DX2 analytically  !
 ! D14   D(5,3,7,6)              4.4841         calculate D2E/DX2 analytically  !
 ! D15   D(5,3,7,12)          -177.6118         calculate D2E/DX2 analytically  !
 ! D16   D(8,6,7,3)            179.1159         calculate D2E/DX2 analytically  !
 ! D17   D(8,6,7,12)             0.7924         calculate D2E/DX2 analytically  !
 ! D18   D(43,6,7,3)            42.0841         calculate D2E/DX2 analytically  !
 ! D19   D(43,6,7,12)         -136.2394         calculate D2E/DX2 analytically  !
 ! D20   D(7,6,8,9)           -178.9849         calculate D2E/DX2 analytically  !
 ! D21   D(7,6,8,10)            -1.0699         calculate D2E/DX2 analytically  !
 ! D22   D(43,6,8,9)           -33.9752         calculate D2E/DX2 analytically  !
 ! D23   D(43,6,8,10)          143.9398         calculate D2E/DX2 analytically  !
 ! D24   D(7,6,43,19)           42.0638         calculate D2E/DX2 analytically  !
 ! D25   D(7,6,43,32)         -118.3736         calculate D2E/DX2 analytically  !
 ! D26   D(7,6,43,61)          144.1157         calculate D2E/DX2 analytically  !
 ! D27   D(8,6,43,19)          -92.7523         calculate D2E/DX2 analytically  !
 ! D28   D(8,6,43,32)          106.8103         calculate D2E/DX2 analytically  !
 ! D29   D(8,6,43,61)            9.2995         calculate D2E/DX2 analytically  !
 ! D30   D(3,7,12,10)         -178.3908         calculate D2E/DX2 analytically  !
 ! D31   D(3,7,12,13)            0.4068         calculate D2E/DX2 analytically  !
 ! D32   D(6,7,12,10)           -0.2693         calculate D2E/DX2 analytically  !
 ! D33   D(6,7,12,13)          178.5284         calculate D2E/DX2 analytically  !
 ! D34   D(6,8,10,11)         -152.2846         calculate D2E/DX2 analytically  !
 ! D35   D(6,8,10,12)            0.911          calculate D2E/DX2 analytically  !
 ! D36   D(9,8,10,11)           25.6934         calculate D2E/DX2 analytically  !
 ! D37   D(9,8,10,12)          178.889          calculate D2E/DX2 analytically  !
 ! D38   D(8,10,11,56)          15.7264         calculate D2E/DX2 analytically  !
 ! D39   D(12,10,11,56)       -127.3941         calculate D2E/DX2 analytically  !
 ! D40   D(8,10,12,7)           -0.3625         calculate D2E/DX2 analytically  !
 ! D41   D(8,10,12,13)        -179.2798         calculate D2E/DX2 analytically  !
 ! D42   D(11,10,12,7)         144.1322         calculate D2E/DX2 analytically  !
 ! D43   D(11,10,12,13)        -34.7851         calculate D2E/DX2 analytically  !
 ! D44   D(10,11,56,57)          7.8252         calculate D2E/DX2 analytically  !
 ! D45   D(10,11,56,58)        135.4417         calculate D2E/DX2 analytically  !
 ! D46   D(15,14,16,17)        -61.2639         calculate D2E/DX2 analytically  !
 ! D47   D(15,14,16,18)       -177.375          calculate D2E/DX2 analytically  !
 ! D48   D(15,14,16,20)         60.4868         calculate D2E/DX2 analytically  !
 ! D49   D(53,14,16,17)         58.3431         calculate D2E/DX2 analytically  !
 ! D50   D(53,14,16,18)        -57.768          calculate D2E/DX2 analytically  !
 ! D51   D(53,14,16,20)       -179.9062         calculate D2E/DX2 analytically  !
 ! D52   D(54,14,16,17)        177.8858         calculate D2E/DX2 analytically  !
 ! D53   D(54,14,16,18)         61.7747         calculate D2E/DX2 analytically  !
 ! D54   D(54,14,16,20)        -60.3635         calculate D2E/DX2 analytically  !
 ! D55   D(14,16,20,19)        172.5187         calculate D2E/DX2 analytically  !
 ! D56   D(14,16,20,25)         -7.7232         calculate D2E/DX2 analytically  !
 ! D57   D(17,16,20,19)        -65.1664         calculate D2E/DX2 analytically  !
 ! D58   D(17,16,20,25)        114.5917         calculate D2E/DX2 analytically  !
 ! D59   D(18,16,20,19)         50.0408         calculate D2E/DX2 analytically  !
 ! D60   D(18,16,20,25)       -130.2011         calculate D2E/DX2 analytically  !
 ! D61   D(21,19,20,16)        179.6483         calculate D2E/DX2 analytically  !
 ! D62   D(21,19,20,25)         -0.153          calculate D2E/DX2 analytically  !
 ! D63   D(43,19,20,16)         -6.9608         calculate D2E/DX2 analytically  !
 ! D64   D(43,19,20,25)        173.2379         calculate D2E/DX2 analytically  !
 ! D65   D(20,19,21,22)        178.3513         calculate D2E/DX2 analytically  !
 ! D66   D(20,19,21,23)          0.0289         calculate D2E/DX2 analytically  !
 ! D67   D(43,19,21,22)          4.326          calculate D2E/DX2 analytically  !
 ! D68   D(43,19,21,23)       -173.9964         calculate D2E/DX2 analytically  !
 ! D69   D(20,19,43,6)          36.1583         calculate D2E/DX2 analytically  !
 ! D70   D(20,19,43,32)        178.3722         calculate D2E/DX2 analytically  !
 ! D71   D(20,19,43,61)        -61.368          calculate D2E/DX2 analytically  !
 ! D72   D(21,19,43,6)        -151.3407         calculate D2E/DX2 analytically  !
 ! D73   D(21,19,43,32)         -9.1268         calculate D2E/DX2 analytically  !
 ! D74   D(21,19,43,61)        111.1329         calculate D2E/DX2 analytically  !
 ! D75   D(16,20,25,23)       -179.5742         calculate D2E/DX2 analytically  !
 ! D76   D(16,20,25,26)         -0.2292         calculate D2E/DX2 analytically  !
 ! D77   D(19,20,25,23)          0.2131         calculate D2E/DX2 analytically  !
 ! D78   D(19,20,25,26)        179.558          calculate D2E/DX2 analytically  !
 ! D79   D(19,21,23,24)        179.6816         calculate D2E/DX2 analytically  !
 ! D80   D(19,21,23,25)          0.1053         calculate D2E/DX2 analytically  !
 ! D81   D(22,21,23,24)          1.3285         calculate D2E/DX2 analytically  !
 ! D82   D(22,21,23,25)       -178.2478         calculate D2E/DX2 analytically  !
 ! D83   D(21,23,25,20)         -0.1968         calculate D2E/DX2 analytically  !
 ! D84   D(21,23,25,26)       -179.6175         calculate D2E/DX2 analytically  !
 ! D85   D(24,23,25,20)       -179.7693         calculate D2E/DX2 analytically  !
 ! D86   D(24,23,25,26)          0.81           calculate D2E/DX2 analytically  !
 ! D87   D(28,27,29,30)        175.5224         calculate D2E/DX2 analytically  !
 ! D88   D(28,27,29,31)         59.3475         calculate D2E/DX2 analytically  !
 ! D89   D(28,27,29,33)        -61.8081         calculate D2E/DX2 analytically  !
 ! D90   D(40,27,29,30)        -65.0288         calculate D2E/DX2 analytically  !
 ! D91   D(40,27,29,31)        178.7963         calculate D2E/DX2 analytically  !
 ! D92   D(40,27,29,33)         57.6407         calculate D2E/DX2 analytically  !
 ! D93   D(55,27,29,30)         55.5642         calculate D2E/DX2 analytically  !
 ! D94   D(55,27,29,31)        -60.6107         calculate D2E/DX2 analytically  !
 ! D95   D(55,27,29,33)        178.2337         calculate D2E/DX2 analytically  !
 ! D96   D(28,27,40,41)          5.806          calculate D2E/DX2 analytically  !
 ! D97   D(28,27,40,42)       -175.7724         calculate D2E/DX2 analytically  !
 ! D98   D(29,27,40,41)       -115.3372         calculate D2E/DX2 analytically  !
 ! D99   D(29,27,40,42)         63.0844         calculate D2E/DX2 analytically  !
 ! D100  D(55,27,40,41)        124.0294         calculate D2E/DX2 analytically  !
 ! D101  D(55,27,40,42)        -57.5489         calculate D2E/DX2 analytically  !
 ! D102  D(27,29,33,32)        -98.2886         calculate D2E/DX2 analytically  !
 ! D103  D(27,29,33,38)         81.2503         calculate D2E/DX2 analytically  !
 ! D104  D(30,29,33,32)         24.9455         calculate D2E/DX2 analytically  !
 ! D105  D(30,29,33,38)       -155.5156         calculate D2E/DX2 analytically  !
 ! D106  D(31,29,33,32)        141.2468         calculate D2E/DX2 analytically  !
 ! D107  D(31,29,33,38)        -39.2143         calculate D2E/DX2 analytically  !
 ! D108  D(34,32,33,29)        179.8374         calculate D2E/DX2 analytically  !
 ! D109  D(34,32,33,38)          0.2203         calculate D2E/DX2 analytically  !
 ! D110  D(43,32,33,29)         -6.4489         calculate D2E/DX2 analytically  !
 ! D111  D(43,32,33,38)        173.934          calculate D2E/DX2 analytically  !
 ! D112  D(33,32,34,35)        178.3643         calculate D2E/DX2 analytically  !
 ! D113  D(33,32,34,36)         -0.3325         calculate D2E/DX2 analytically  !
 ! D114  D(43,32,34,35)          3.2868         calculate D2E/DX2 analytically  !
 ! D115  D(43,32,34,36)       -175.4099         calculate D2E/DX2 analytically  !
 ! D116  D(33,32,43,6)        -137.5773         calculate D2E/DX2 analytically  !
 ! D117  D(33,32,43,19)         79.2298         calculate D2E/DX2 analytically  !
 ! D118  D(33,32,43,61)        -41.975          calculate D2E/DX2 analytically  !
 ! D119  D(34,32,43,6)          35.6601         calculate D2E/DX2 analytically  !
 ! D120  D(34,32,43,19)       -107.5328         calculate D2E/DX2 analytically  !
 ! D121  D(34,32,43,61)        131.2624         calculate D2E/DX2 analytically  !
 ! D122  D(29,33,38,36)       -179.626          calculate D2E/DX2 analytically  !
 ! D123  D(29,33,38,39)          1.0524         calculate D2E/DX2 analytically  !
 ! D124  D(32,33,38,36)         -0.0299         calculate D2E/DX2 analytically  !
 ! D125  D(32,33,38,39)       -179.3515         calculate D2E/DX2 analytically  !
 ! D126  D(32,34,36,37)        179.2271         calculate D2E/DX2 analytically  !
 ! D127  D(32,34,36,38)          0.3199         calculate D2E/DX2 analytically  !
 ! D128  D(35,34,36,37)          0.4999         calculate D2E/DX2 analytically  !
 ! D129  D(35,34,36,38)       -178.4073         calculate D2E/DX2 analytically  !
 ! D130  D(34,36,38,33)         -0.1705         calculate D2E/DX2 analytically  !
 ! D131  D(34,36,38,39)        179.2265         calculate D2E/DX2 analytically  !
 ! D132  D(37,36,38,33)       -179.0676         calculate D2E/DX2 analytically  !
 ! D133  D(37,36,38,39)          0.3294         calculate D2E/DX2 analytically  !
 ! D134  D(27,40,42,49)          1.3307         calculate D2E/DX2 analytically  !
 ! D135  D(41,40,42,49)        179.8283         calculate D2E/DX2 analytically  !
 ! D136  D(40,42,49,48)       -157.2495         calculate D2E/DX2 analytically  !
 ! D137  D(6,43,61,62)        -176.8416         calculate D2E/DX2 analytically  !
 ! D138  D(6,43,61,63)         -49.3534         calculate D2E/DX2 analytically  !
 ! D139  D(19,43,61,62)        -69.872          calculate D2E/DX2 analytically  !
 ! D140  D(19,43,61,63)         57.6161         calculate D2E/DX2 analytically  !
 ! D141  D(32,43,61,62)         82.255          calculate D2E/DX2 analytically  !
 ! D142  D(32,43,61,63)       -150.2568         calculate D2E/DX2 analytically  !
 ! D143  D(46,44,59,57)        -18.5905         calculate D2E/DX2 analytically  !
 ! D144  D(46,44,59,60)       -156.1205         calculate D2E/DX2 analytically  !
 ! D145  D(46,44,59,63)         98.2355         calculate D2E/DX2 analytically  !
 ! D146  D(50,44,59,57)       -143.2309         calculate D2E/DX2 analytically  !
 ! D147  D(50,44,59,60)         79.2391         calculate D2E/DX2 analytically  !
 ! D148  D(50,44,59,63)        -26.4049         calculate D2E/DX2 analytically  !
 ! D149  D(45,44,50,48)          5.0651         calculate D2E/DX2 analytically  !
 ! D150  D(46,44,50,48)       -118.2412         calculate D2E/DX2 analytically  !
 ! D151  D(47,48,49,42)       -148.7763         calculate D2E/DX2 analytically  !
 ! D152  D(50,48,49,42)        -11.6653         calculate D2E/DX2 analytically  !
 ! D153  D(62,48,49,42)         77.9236         calculate D2E/DX2 analytically  !
 ! D154  D(47,48,50,44)       -110.7712         calculate D2E/DX2 analytically  !
 ! D155  D(49,48,50,44)        108.674          calculate D2E/DX2 analytically  !
 ! D156  D(62,48,50,44)         11.3801         calculate D2E/DX2 analytically  !
 ! D157  D(47,48,62,61)        167.5712         calculate D2E/DX2 analytically  !
 ! D158  D(49,48,62,61)        -62.7004         calculate D2E/DX2 analytically  !
 ! D159  D(50,48,62,61)         60.9895         calculate D2E/DX2 analytically  !
 ! D160  D(11,56,59,45)         84.8615         calculate D2E/DX2 analytically  !
 ! D161  D(11,56,59,60)       -139.7142         calculate D2E/DX2 analytically  !
 ! D162  D(11,56,59,63)        -17.7143         calculate D2E/DX2 analytically  !
 ! D163  D(58,56,59,45)        -43.977          calculate D2E/DX2 analytically  !
 ! D164  D(58,56,59,60)         91.4473         calculate D2E/DX2 analytically  !
 ! D165  D(58,56,59,63)       -146.5528         calculate D2E/DX2 analytically  !
 ! D166  D(45,59,61,43)        -84.379          calculate D2E/DX2 analytically  !
 ! D167  D(45,59,61,62)         43.6698         calculate D2E/DX2 analytically  !
 ! D168  D(57,59,61,43)         50.6746         calculate D2E/DX2 analytically  !
 ! D169  D(57,59,61,62)        178.7234         calculate D2E/DX2 analytically  !
 ! D170  D(60,59,61,43)        174.2203         calculate D2E/DX2 analytically  !
 ! D171  D(60,59,61,62)        -57.731          calculate D2E/DX2 analytically  !
 ! D172  D(43,61,62,48)         38.5821         calculate D2E/DX2 analytically  !
 ! D173  D(63,61,62,48)        -97.4125         calculate D2E/DX2 analytically  !
 --------------------------------------------------------------------------------
 Trust Radius=3.00D-01 FncErr=1.00D-07 GrdErr=1.00D-06 EigMax=2.50D+02 EigMin=1.00D-04
 Number of steps in this run=    378 maximum allowed number of steps=    378.
 Search for a saddle point of order  1.
 GradGradGradGradGradGradGradGradGradGradGradGradGradGradGradGradGradGrad

 Stoichiometry    C16H33N6O7Zn(1+)
 Framework group  C1[X(C16H33N6O7Zn)]
 Deg. of freedom   183
 Full point group                 C1      NOp   1
 Largest Abelian subgroup         C1      NOp   1
 Largest concise Abelian subgroup C1      NOp   1
                         Standard orientation:                         
 ---------------------------------------------------------------------
 Center     Atomic      Atomic             Coordinates (Angstroms)
 Number     Number       Type             X           Y           Z
 ---------------------------------------------------------------------
      1          6           0       -1.935185    4.228971    2.358534
      2          1           0       -1.632214    4.465521    3.378703
      3          6           0       -1.616043    2.771272    2.022445
      4          1           0       -2.111022    2.113130    2.741982
      5          1           0       -0.543201    2.591263    2.124617
      6          7           0       -1.102800    1.807059   -0.240686
      7          6           0       -2.008391    2.380829    0.631214
      8          6           0       -1.781386    1.574601   -1.360788
      9          1           0       -1.374444    1.115311   -2.245845
     10          7           0       -3.058023    1.933805   -1.267869
     11          1           0       -3.828018    1.215295   -2.068275
     12          6           0       -3.220377    2.455214   -0.005418
     13          1           0       -4.171283    2.817792    0.346732
     14          6           0       -4.305434   -1.748048    0.560230
     15          1           0       -4.715561   -1.786764    1.570639
     16          6           0       -2.989176   -0.969054    0.524344
     17          1           0       -3.163555    0.059633    0.847117
     18          1           0       -2.628954   -0.908259   -0.504993
     19          7           0       -0.602056   -1.104129    1.378351
     20          6           0       -1.915382   -1.560455    1.379020
     21          6           0        0.063043   -1.843893    2.249523
     22          1           0        1.114457   -1.761406    2.468117
     23          7           0       -0.748757   -2.747401    2.806916
     24          1           0       -0.477619   -3.430938    3.498453
     25          6           0       -2.005268   -2.589740    2.270210
     26          1           0       -2.836314   -3.203291    2.569185
     27          6           0        4.602095   -1.024988   -0.581213
     28          1           0        5.545134   -0.494846   -0.470416
     29          6           0        3.651324   -0.248656   -1.512568
     30          1           0        2.740418   -0.821664   -1.682807
     31          1           0        4.139790   -0.143220   -2.480730
     32          7           0        2.112874    1.381210   -0.317755
     33          6           0        3.289773    1.105708   -0.993231
     34          6           0        2.139130    2.666616   -0.011503
     35          1           0        1.359841    3.209720    0.496766
     36          7           0        3.273360    3.224648   -0.449212
     37          1           0        3.524889    4.197205   -0.347981
     38          6           0        4.016015    2.257063   -1.075580
     39          1           0        4.970846    2.464528   -1.525040
     40          6           0        4.000726   -1.184618    0.794902
     41          8           0        4.465966   -0.690738    1.791102
     42          8           0        2.869461   -1.893790    0.885526
     43         30           0        0.346611    0.317141    0.142465
     44          8           0       -1.190261   -3.423372   -1.100583
     45          1           0       -1.678669   -2.756429   -1.630624
     46          1           0       -1.581289   -3.400614   -0.218324
     47          1           0        1.911430   -3.578668   -1.849468
     48          8           0        1.494290   -2.958996   -1.240239
     49          1           0        2.531298   -2.272884    0.042305
     50          1           0        0.572354   -3.277935   -1.093823
     51          1           0       -1.413890    4.903310    1.677709
     52          1           0       -3.005362    4.420902    2.269880
     53          1           0       -5.037073   -1.261995   -0.084156
     54          1           0       -4.171394   -2.772651    0.206771
     55          1           0        4.797522   -2.012284   -1.005682
     56          8           0       -4.038982    0.240785   -2.786964
     57          1           0       -3.106672   -0.630604   -2.733250
     58          1           0       -4.901369   -0.153886   -2.631283
     59          8           0       -2.203068   -1.353869   -2.701475
     60          1           0       -2.079596   -1.666743   -3.604557
     61          8           0        0.123408   -0.608850   -1.741835
     62          1           0        0.679133   -1.404900   -1.817455
     63          1           0       -1.029401   -0.928514   -2.231386
 ---------------------------------------------------------------------
 Rotational constants (GHZ):           0.1706121           0.1178598           0.0980136
 General basis read from cards:  (5D, 7F)
 ======================================================================================================
                                       Pseudopotential Parameters
 ======================================================================================================
  Center     Atomic      Valence      Angular      Power
  Number     Number     Electrons     Momentum     of R      Exponent        Coefficient   SO-Coeffient
 ======================================================================================================
    1          6
                                   No pseudopotential on this center.
    2          1
                                   No pseudopotential on this center.
    3          6
                                   No pseudopotential on this center.
    4          1
                                   No pseudopotential on this center.
    5          1
                                   No pseudopotential on this center.
    6          7
                                   No pseudopotential on this center.
    7          6
                                   No pseudopotential on this center.
    8          6
                                   No pseudopotential on this center.
    9          1
                                   No pseudopotential on this center.
   10          7
                                   No pseudopotential on this center.
   11          1
                                   No pseudopotential on this center.
   12          6
                                   No pseudopotential on this center.
   13          1
                                   No pseudopotential on this center.
   14          6
                                   No pseudopotential on this center.
   15          1
                                   No pseudopotential on this center.
   16          6
                                   No pseudopotential on this center.
   17          1
                                   No pseudopotential on this center.
   18          1
                                   No pseudopotential on this center.
   19          7
                                   No pseudopotential on this center.
   20          6
                                   No pseudopotential on this center.
   21          6
                                   No pseudopotential on this center.
   22          1
                                   No pseudopotential on this center.
   23          7
                                   No pseudopotential on this center.
   24          1
                                   No pseudopotential on this center.
   25          6
                                   No pseudopotential on this center.
   26          1
                                   No pseudopotential on this center.
   27          6
                                   No pseudopotential on this center.
   28          1
                                   No pseudopotential on this center.
   29          6
                                   No pseudopotential on this center.
   30          1
                                   No pseudopotential on this center.
   31          1
                                   No pseudopotential on this center.
   32          7
                                   No pseudopotential on this center.
   33          6
                                   No pseudopotential on this center.
   34          6
                                   No pseudopotential on this center.
   35          1
                                   No pseudopotential on this center.
   36          7
                                   No pseudopotential on this center.
   37          1
                                   No pseudopotential on this center.
   38          6
                                   No pseudopotential on this center.
   39          1
                                   No pseudopotential on this center.
   40          6
                                   No pseudopotential on this center.
   41          8
                                   No pseudopotential on this center.
   42          8
                                   No pseudopotential on this center.
   43         30           12
                                      F and up 
                                                     1      386.7379660      -18.00000000    0.00000000
                                                     2       72.8587359     -124.35274030    0.00000000
                                                     2       15.9066170      -30.66018220    0.00000000
                                                     2        4.3502340      -10.63589890    0.00000000
                                                     2        1.2842199       -0.76836230    0.00000000
                                      S - F
                                                     0       19.0867858        3.00000000    0.00000000
                                                     1        5.0231080       22.52342250    0.00000000
                                                     2        1.2701744       48.44659420    0.00000000
                                                     2        1.0671287      -44.55601190    0.00000000
                                                     2        0.9264190       12.99839580    0.00000000
                                      P - F
                                                     0       43.4927750        5.00000000    0.00000000
                                                     1       20.8692669       20.74355890    0.00000000
                                                     2       21.7118378       90.30271580    0.00000000
                                                     2        6.3616915       74.66103160    0.00000000
                                                     2        1.2291195        9.88944240    0.00000000
                                      D - F
                                                     2       13.5851800       -4.84903590    0.00000000
                                                     2        9.8373050        3.69133790    0.00000000
                                                     2        0.8373113       -0.50373190    0.00000000
   44          8
                                   No pseudopotential on this center.
   45          1
                                   No pseudopotential on this center.
   46          1
                                   No pseudopotential on this center.
   47          1
                                   No pseudopotential on this center.
   48          8
                                   No pseudopotential on this center.
   49          1
                                   No pseudopotential on this center.
   50          1
                                   No pseudopotential on this center.
   51          1
                                   No pseudopotential on this center.
   52          1
                                   No pseudopotential on this center.
   53          1
                                   No pseudopotential on this center.
   54          1
                                   No pseudopotential on this center.
   55          1
                                   No pseudopotential on this center.
   56          8
                                   No pseudopotential on this center.
   57          1
                                   No pseudopotential on this center.
   58          1
                                   No pseudopotential on this center.
   59          8
                                   No pseudopotential on this center.
   60          1
                                   No pseudopotential on this center.
   61          8
                                   No pseudopotential on this center.
   62          1
                                   No pseudopotential on this center.
   63          1
                                   No pseudopotential on this center.
 ======================================================================================================
 There are   798 symmetry adapted cartesian basis functions of A   symmetry.
 There are   767 symmetry adapted basis functions of A   symmetry.
   767 basis functions,  1318 primitive gaussians,   798 cartesian basis functions
   119 alpha electrons      119 beta electrons
       nuclear repulsion energy      3581.2829012731 Hartrees.
 NAtoms=   63 NActive=   63 NUniq=   63 SFac= 1.00D+00 NAtFMM=   60 NAOKFM=T Big=T
 Integral buffers will be    131072 words long.
 Raffenetti 2 integral format.
 Two-electron integral symmetry is turned on.
 Force inversion solution in PCM.
 ------------------------------------------------------------------------------
 Polarizable Continuum Model (PCM)
 =================================
 Model                : PCM.
 Atomic radii         : UFF (Universal Force Field).
 Polarization charges : Total charges.
 Charge compensation  : None.
 Solution method      : Matrix inversion.
 Cavity type          : Scaled VdW (van der Waals Surface) (Alpha=1.100).
 Cavity algorithm     : GePol (No added spheres)
                        Default sphere list used, NSphG=   63.
                        Lebedev-Laikov grids with approx.  5.0 points / Ang**2.
                        Smoothing algorithm: York/Karplus (Gamma=1.0000).
                        Polarization charges: spherical gaussians, with
                                              point-specific exponents (IZeta= 3).
                        Self-potential: point-specific (ISelfS= 7).
                        Self-field    : sphere-specific E.n sum rule (ISelfD= 2).
 1st derivatives      : Analytical E(r).r(x)/FMM algorithm (CHGder, D1EAlg=3).
                        Cavity 1st derivative terms included.
 2nd derivatives      : Analytical E(r).r(xy)/FMM algorithm (CHGder, D2EAlg=3).
                        Cavity 2nd derivative terms included.
 Solvent              : Water, Eps=  78.355300 Eps(inf)=   1.777849
 ------------------------------------------------------------------------------
 One-electron integrals computed using PRISM.
   1 Symmetry operations used in ECPInt.
 ECPInt:  NShTT=   79800 NPrTT=  267559 LenC2=   66499 LenP2D=  146242.
 LDataN:  DoStor=T MaxTD1= 5 Len=  102
 Number of processors reduced to  74 by ecpmxn.
 NBasis=   767 RedAO= T EigKep=  5.58D-05  NBF=   767
 NBsUse=   767 1.00D-06 EigRej= -1.00D+00 NBFU=   767
 ExpMin= 3.51D-02 ExpMax= 2.70D+04 ExpMxC= 9.22D+02 IAcc=3 IRadAn=         5 AccDes= 0.00D+00
 Harris functional with IExCor= 1009 and IRadAn=       5 diagonalized for initial guess.
 HarFok:  IExCor= 1009 AccDes= 0.00D+00 IRadAn=         5 IDoV= 1 UseB2=F ITyADJ=14
 ICtDFT=  3500011 ScaDFX=  1.000000  1.000000  1.000000  1.000000
 FoFCou: FMM=F IPFlag=           0 FMFlag=      100000 FMFlg1=        2001
         NFxFlg=           0 DoJE=T BraDBF=F KetDBF=T FulRan=T
         wScrn=  0.000000 ICntrl=       500 IOpCl=  0 I1Cent=   200000004 NGrid=           0
         NMat0=    1 NMatS0=      1 NMatT0=    0 NMatD0=    1 NMtDS0=    0 NMtDT0=    0
 Petite list used in FoFCou.
 Requested convergence on RMS density matrix=1.00D-08 within 128 cycles.
 Requested convergence on MAX density matrix=1.00D-06.
 Requested convergence on             energy=1.00D-06.
 No special actions if energy rises.
 Inv3:  Mode=1 IEnd=    52216752.
 Iteration    1 A*A^-1 deviation from unit magnitude is 3.77D-15 for   2205.
 Iteration    1 A*A^-1 deviation from orthogonality  is 3.11D-15 for   2751    394.
 Iteration    1 A^-1*A deviation from unit magnitude is 3.89D-15 for   2205.
 Iteration    1 A^-1*A deviation from orthogonality  is 2.22D-15 for   3727   1817.
 Error on total polarization charges =  0.01704
 SCF Done:  E(RM062X) =  -1550.09446811     A.U. after   13 cycles
            NFock= 13  Conv=0.51D-08     -V/T= 1.9735
 DoSCS=F DFT=T ScalE2(SS,OS)=  1.000000  1.000000
 Range of M.O.s used for correlation:     1   767
 NBasis=   767 NAE=   119 NBE=   119 NFC=     0 NFV=     0
 NROrb=    767 NOA=   119 NOB=   119 NVA=   648 NVB=   648

 **** Warning!!: The largest alpha MO coefficient is  0.22273773D+02

   1 Symmetry operations used in ECPInt.
 ECPInt:  NShTT=   79800 NPrTT=  267559 LenC2=   66499 LenP2D=  146242.
 LDataN:  DoStor=T MaxTD1= 6 Len=  172
 Number of processors reduced to  11 by ecpmxn.
 Symmetrizing basis deriv contribution to polar:
 IMax=3 JMax=2 DiffMx= 0.00D+00
 G2DrvN: will do    64 centers at a time, making    1 passes.
 Calling FoFCou, ICntrl=  3107 FMM=T I1Cent=   0 AccDes= 0.00D+00.
 NEqPCM:  Using equilibrium solvation (IEInf=0, Eps=  78.3553, EpsInf=   1.7778)
 G2PCM: DoFxE=T DoFxN=T DoGrad=T DoDP/DQ/DG/TGxP=FFFF NFrqRd=   0 IEInf=0 SqF1=F DoCFld=F IF1Alg=4.
 End of G2Drv F.D. properties file   721 does not exist.
 End of G2Drv F.D. properties file   722 does not exist.
 End of G2Drv F.D. properties file   788 does not exist.
          IDoAtm=11111111111111111111111111111111111111111111111111
          IDoAtm=1111111111111
 NEqPCM:  Using equilibrium solvation (IEInf=0, Eps=  78.3553, EpsInf=   1.7778)
          Differentiating once with respect to electric field.
                with respect to dipole field.
          Differentiating once with respect to nuclear coordinates.
 CalDSu exits because no D1Ps are significant.
          There are   192 degrees of freedom in the 1st order CPHF.  IDoFFX=6 NUNeed=     3.
    189 vectors produced by pass  0 Test12= 7.71D-14 1.00D-09 XBig12= 1.47D+02 2.21D+00.
 AX will form    96 AO Fock derivatives at one time.
    189 vectors produced by pass  1 Test12= 7.71D-14 1.00D-09 XBig12= 1.38D+01 2.74D-01.
    189 vectors produced by pass  2 Test12= 7.71D-14 1.00D-09 XBig12= 1.95D-01 3.24D-02.
    189 vectors produced by pass  3 Test12= 7.71D-14 1.00D-09 XBig12= 1.73D-03 2.48D-03.
    189 vectors produced by pass  4 Test12= 7.71D-14 1.00D-09 XBig12= 8.95D-06 1.84D-04.
    189 vectors produced by pass  5 Test12= 7.71D-14 1.00D-09 XBig12= 3.81D-08 8.97D-06.
    133 vectors produced by pass  6 Test12= 7.71D-14 1.00D-09 XBig12= 1.39D-10 7.02D-07.
     15 vectors produced by pass  7 Test12= 7.71D-14 1.00D-09 XBig12= 5.18D-13 7.62D-08.
      4 vectors produced by pass  8 Test12= 7.71D-14 1.00D-09 XBig12= 2.89D-15 7.52D-09.
      3 vectors produced by pass  9 Test12= 7.71D-14 1.00D-09 XBig12= 5.43D-16 1.64D-09.
      3 vectors produced by pass 10 Test12= 7.71D-14 1.00D-09 XBig12= 1.30D-15 1.92D-09.
      3 vectors produced by pass 11 Test12= 7.71D-14 1.00D-09 XBig12= 1.48D-15 1.90D-09.
      3 vectors produced by pass 12 Test12= 7.71D-14 1.00D-09 XBig12= 1.55D-15 2.26D-09.
 InvSVY:  IOpt=1 It=  1 EMax= 8.88D-15
 Solved reduced A of dimension  1298 with   192 vectors.
 Isotropic polarizability for W=    0.000000      352.99 Bohr**3.
 End of Minotr F.D. properties file   721 does not exist.
 End of Minotr F.D. properties file   722 does not exist.
 End of Minotr F.D. properties file   788 does not exist.

 **********************************************************************

            Population analysis using the SCF density.

 **********************************************************************

 Orbital symmetries:
       Occupied  (A) (A) (A) (A) (A) (A) (A) (A) (A) (A) (A) (A)
                 (A) (A) (A) (A) (A) (A) (A) (A) (A) (A) (A) (A)
                 (A) (A) (A) (A) (A) (A) (A) (A) (A) (A) (A) (A)
                 (A) (A) (A) (A) (A) (A) (A) (A) (A) (A) (A) (A)
                 (A) (A) (A) (A) (A) (A) (A) (A) (A) (A) (A) (A)
                 (A) (A) (A) (A) (A) (A) (A) (A) (A) (A) (A) (A)
                 (A) (A) (A) (A) (A) (A) (A) (A) (A) (A) (A) (A)
                 (A) (A) (A) (A) (A) (A) (A) (A) (A) (A) (A) (A)
                 (A) (A) (A) (A) (A) (A) (A) (A) (A) (A) (A) (A)
                 (A) (A) (A) (A) (A) (A) (A) (A) (A) (A) (A)
       Virtual   (A) (A) (A) (A) (A) (A) (A) (A) (A) (A) (A) (A)
                 (A) (A) (A) (A) (A) (A) (A) (A) (A) (A) (A) (A)
                 (A) (A) (A) (A) (A) (A) (A) (A) (A) (A) (A) (A)
                 (A) (A) (A) (A) (A) (A) (A) (A) (A) (A) (A) (A)
                 (A) (A) (A) (A) (A) (A) (A) (A) (A) (A) (A) (A)
                 (A) (A) (A) (A) (A) (A) (A) (A) (A) (A) (A) (A)
                 (A) (A) (A) (A) (A) (A) (A) (A) (A) (A) (A) (A)
                 (A) (A) (A) (A) (A) (A) (A) (A) (A) (A) (A) (A)
                 (A) (A) (A) (A) (A) (A) (A) (A) (A) (A) (A) (A)
                 (A) (A) (A) (A) (A) (A) (A) (A) (A) (A) (A) (A)
                 (A) (A) (A) (A) (A) (A) (A) (A) (A) (A) (A) (A)
                 (A) (A) (A) (A) (A) (A) (A) (A) (A) (A) (A) (A)
                 (A) (A) (A) (A) (A) (A) (A) (A) (A) (A) (A) (A)
                 (A) (A) (A) (A) (A) (A) (A) (A) (A) (A) (A) (A)
                 (A) (A) (A) (A) (A) (A) (A) (A) (A) (A) (A) (A)
                 (A) (A) (A) (A) (A) (A) (A) (A) (A) (A) (A) (A)
                 (A) (A) (A) (A) (A) (A) (A) (A) (A) (A) (A) (A)
                 (A) (A) (A) (A) (A) (A) (A) (A) (A) (A) (A) (A)
                 (A) (A) (A) (A) (A) (A) (A) (A) (A) (A) (A) (A)
                 (A) (A) (A) (A) (A) (A) (A) (A) (A) (A) (A) (A)
                 (A) (A) (A) (A) (A) (A) (A) (A) (A) (A) (A) (A)
                 (A) (A) (A) (A) (A) (A) (A) (A) (A) (A) (A) (A)
                 (A) (A) (A) (A) (A) (A) (A) (A) (A) (A) (A) (A)
                 (A) (A) (A) (A) (A) (A) (A) (A) (A) (A) (A) (A)
                 (A) (A) (A) (A) (A) (A) (A) (A) (A) (A) (A) (A)
                 (A) (A) (A) (A) (A) (A) (A) (A) (A) (A) (A) (A)
                 (A) (A) (A) (A) (A) (A) (A) (A) (A) (A) (A) (A)
                 (A) (A) (A) (A) (A) (A) (A) (A) (A) (A) (A) (A)
                 (A) (A) (A) (A) (A) (A) (A) (A) (A) (A) (A) (A)
                 (A) (A) (A) (A) (A) (A) (A) (A) (A) (A) (A) (A)
                 (A) (A) (A) (A) (A) (A) (A) (A) (A) (A) (A) (A)
                 (A) (A) (A) (A) (A) (A) (A) (A) (A) (A) (A) (A)
                 (A) (A) (A) (A) (A) (A) (A) (A) (A) (A) (A) (A)
                 (A) (A) (A) (A) (A) (A) (A) (A) (A) (A) (A) (A)
                 (A) (A) (A) (A) (A) (A) (A) (A) (A) (A) (A) (A)
                 (A) (A) (A) (A) (A) (A) (A) (A) (A) (A) (A) (A)
                 (A) (A) (A) (A) (A) (A) (A) (A) (A) (A) (A) (A)
                 (A) (A) (A) (A) (A) (A) (A) (A) (A) (A) (A) (A)
                 (A) (A) (A) (A) (A) (A) (A) (A) (A) (A) (A) (A)
                 (A) (A) (A) (A) (A) (A) (A) (A) (A) (A) (A) (A)
                 (A) (A) (A) (A) (A) (A) (A) (A) (A) (A) (A) (A)
                 (A) (A) (A) (A) (A) (A) (A) (A) (A) (A) (A) (A)
                 (A) (A) (A) (A) (A) (A) (A) (A) (A) (A) (A) (A)
                 (A) (A) (A) (A) (A) (A) (A) (A) (A) (A) (A) (A)
                 (A) (A) (A) (A) (A) (A) (A) (A) (A) (A) (A) (A)
                 (A) (A) (A) (A) (A) (A) (A) (A) (A) (A) (A) (A)
                 (A) (A) (A) (A) (A) (A) (A) (A) (A) (A) (A) (A)
                 (A) (A) (A) (A) (A) (A) (A) (A) (A) (A) (A) (A)
                 (A) (A) (A) (A) (A) (A) (A) (A) (A) (A) (A) (A)
                 (A) (A) (A) (A) (A) (A) (A) (A) (A) (A) (A) (A)
                 (A) (A) (A) (A) (A) (A) (A) (A) (A) (A) (A) (A)
                 (A) (A) (A) (A) (A) (A) (A) (A) (A) (A) (A) (A)
                 (A) (A) (A) (A) (A) (A) (A) (A) (A) (A) (A) (A)
                 (A) (A) (A) (A) (A) (A) (A) (A) (A) (A) (A) (A)
 The electronic state is 1-A.
 Alpha  occ. eigenvalues --  -19.67055 -19.64933 -19.64831 -19.63683 -19.62491
 Alpha  occ. eigenvalues --  -19.61548 -19.60746 -14.82999 -14.82870 -14.78612
 Alpha  occ. eigenvalues --  -14.78566 -14.75776 -14.75442 -10.68526 -10.62692
 Alpha  occ. eigenvalues --  -10.62638 -10.58788 -10.58782 -10.58606 -10.58599
 Alpha  occ. eigenvalues --  -10.58576 -10.56241 -10.56141 -10.56038 -10.55229
 Alpha  occ. eigenvalues --  -10.54580 -10.54021 -10.53226 -10.52557  -1.23948
 Alpha  occ. eigenvalues --   -1.16802  -1.16687  -1.16071  -1.15322  -1.14763
 Alpha  occ. eigenvalues --   -1.13757  -1.12280  -1.10076  -1.07560  -1.01427
 Alpha  occ. eigenvalues --   -1.01201  -0.96202  -0.92176  -0.90768  -0.88639
 Alpha  occ. eigenvalues --   -0.86310  -0.84250  -0.81740  -0.77806  -0.75078
 Alpha  occ. eigenvalues --   -0.73520  -0.72644  -0.72567  -0.71688  -0.71511
 Alpha  occ. eigenvalues --   -0.71006  -0.70841  -0.70597  -0.70398  -0.68281
 Alpha  occ. eigenvalues --   -0.67504  -0.66478  -0.65362  -0.64930  -0.63955
 Alpha  occ. eigenvalues --   -0.63699  -0.63418  -0.62483  -0.61588  -0.60691
 Alpha  occ. eigenvalues --   -0.59679  -0.57038  -0.56294  -0.55851  -0.55661
 Alpha  occ. eigenvalues --   -0.54633  -0.54208  -0.54152  -0.53686  -0.52683
 Alpha  occ. eigenvalues --   -0.52514  -0.52398  -0.52130  -0.51695  -0.51066
 Alpha  occ. eigenvalues --   -0.50945  -0.50503  -0.49584  -0.48787  -0.48120
 Alpha  occ. eigenvalues --   -0.48047  -0.47693  -0.46583  -0.45996  -0.45080
 Alpha  occ. eigenvalues --   -0.44242  -0.43636  -0.43523  -0.43409  -0.42822
 Alpha  occ. eigenvalues --   -0.42695  -0.42292  -0.42034  -0.41584  -0.41262
 Alpha  occ. eigenvalues --   -0.40945  -0.40509  -0.40252  -0.39072  -0.38834
 Alpha  occ. eigenvalues --   -0.38184  -0.37639  -0.37165  -0.36386  -0.36199
 Alpha  occ. eigenvalues --   -0.33852  -0.30950  -0.30687  -0.27577
 Alpha virt. eigenvalues --    0.02235   0.02819   0.03198   0.03602   0.04086
 Alpha virt. eigenvalues --    0.04663   0.04914   0.05596   0.05891   0.06801
 Alpha virt. eigenvalues --    0.06975   0.07569   0.07908   0.08134   0.08593
 Alpha virt. eigenvalues --    0.09052   0.09331   0.09611   0.10164   0.10614
 Alpha virt. eigenvalues --    0.11296   0.11915   0.12431   0.13150   0.13360
 Alpha virt. eigenvalues --    0.13920   0.14082   0.14847   0.15239   0.15379
 Alpha virt. eigenvalues --    0.15935   0.16139   0.16165   0.16374   0.16689
 Alpha virt. eigenvalues --    0.17225   0.17666   0.18498   0.18753   0.19038
 Alpha virt. eigenvalues --    0.19343   0.19535   0.19848   0.20020   0.20173
 Alpha virt. eigenvalues --    0.20437   0.21173   0.21363   0.21471   0.21782
 Alpha virt. eigenvalues --    0.22034   0.22561   0.22993   0.23242   0.23445
 Alpha virt. eigenvalues --    0.24253   0.24430   0.24782   0.24986   0.25426
 Alpha virt. eigenvalues --    0.25457   0.26081   0.26516   0.26899   0.27363
 Alpha virt. eigenvalues --    0.27877   0.28017   0.28288   0.28901   0.29460
 Alpha virt. eigenvalues --    0.30070   0.30169   0.30755   0.31008   0.31244
 Alpha virt. eigenvalues --    0.32017   0.32564   0.32963   0.33272   0.33782
 Alpha virt. eigenvalues --    0.34056   0.34628   0.35044   0.35571   0.35602
 Alpha virt. eigenvalues --    0.36479   0.36873   0.37079   0.37538   0.38047
 Alpha virt. eigenvalues --    0.38221   0.38404   0.38652   0.39239   0.39848
 Alpha virt. eigenvalues --    0.40327   0.40473   0.41110   0.41509   0.41587
 Alpha virt. eigenvalues --    0.42049   0.42239   0.42749   0.42833   0.43450
 Alpha virt. eigenvalues --    0.43554   0.43835   0.44156   0.44507   0.44636
 Alpha virt. eigenvalues --    0.44995   0.45289   0.45418   0.45700   0.46328
 Alpha virt. eigenvalues --    0.46659   0.46742   0.47065   0.47312   0.47675
 Alpha virt. eigenvalues --    0.48013   0.49051   0.49126   0.49266   0.49548
 Alpha virt. eigenvalues --    0.50184   0.50412   0.50626   0.50813   0.50985
 Alpha virt. eigenvalues --    0.51242   0.51573   0.51773   0.51948   0.52372
 Alpha virt. eigenvalues --    0.52682   0.52979   0.53630   0.54017   0.54134
 Alpha virt. eigenvalues --    0.54530   0.54767   0.55046   0.55791   0.55861
 Alpha virt. eigenvalues --    0.56856   0.56987   0.57313   0.57486   0.57998
 Alpha virt. eigenvalues --    0.58192   0.58932   0.59344   0.59635   0.60473
 Alpha virt. eigenvalues --    0.60607   0.61082   0.61352   0.62162   0.62697
 Alpha virt. eigenvalues --    0.63081   0.63357   0.63853   0.64248   0.64954
 Alpha virt. eigenvalues --    0.65119   0.65568   0.66364   0.66493   0.67170
 Alpha virt. eigenvalues --    0.67748   0.68143   0.68691   0.68988   0.69050
 Alpha virt. eigenvalues --    0.69544   0.70218   0.70581   0.71088   0.71594
 Alpha virt. eigenvalues --    0.72918   0.73064   0.73436   0.73713   0.74075
 Alpha virt. eigenvalues --    0.74259   0.75027   0.75314   0.75996   0.76600
 Alpha virt. eigenvalues --    0.76900   0.77753   0.78176   0.78899   0.79757
 Alpha virt. eigenvalues --    0.80324   0.80766   0.81089   0.81621   0.82621
 Alpha virt. eigenvalues --    0.82733   0.83299   0.84115   0.85102   0.85436
 Alpha virt. eigenvalues --    0.86472   0.87116   0.88138   0.89382   0.89531
 Alpha virt. eigenvalues --    0.90462   0.91243   0.92591   0.93263   0.94639
 Alpha virt. eigenvalues --    0.97567   0.98889   0.99616   1.02409   1.06176
 Alpha virt. eigenvalues --    1.20233   1.20834   1.24337   1.25884   1.27270
 Alpha virt. eigenvalues --    1.27621   1.28207   1.29872   1.30177   1.30367
 Alpha virt. eigenvalues --    1.31187   1.31379   1.31996   1.32666   1.33663
 Alpha virt. eigenvalues --    1.33744   1.34020   1.34445   1.35007   1.35413
 Alpha virt. eigenvalues --    1.35840   1.36193   1.36556   1.36796   1.37563
 Alpha virt. eigenvalues --    1.38239   1.38506   1.39068   1.39869   1.39913
 Alpha virt. eigenvalues --    1.40499   1.40773   1.41098   1.41418   1.41712
 Alpha virt. eigenvalues --    1.42195   1.42458   1.43846   1.44128   1.44389
 Alpha virt. eigenvalues --    1.45124   1.45573   1.45851   1.46696   1.47180
 Alpha virt. eigenvalues --    1.47454   1.47752   1.48570   1.48829   1.49082
 Alpha virt. eigenvalues --    1.49501   1.50090   1.50309   1.51056   1.51489
 Alpha virt. eigenvalues --    1.51679   1.52046   1.52298   1.53211   1.53773
 Alpha virt. eigenvalues --    1.54156   1.54592   1.55001   1.55371   1.55914
 Alpha virt. eigenvalues --    1.56890   1.57204   1.57490   1.58092   1.58192
 Alpha virt. eigenvalues --    1.58875   1.59362   1.59491   1.60213   1.61000
 Alpha virt. eigenvalues --    1.61020   1.62124   1.62452   1.62887   1.63484
 Alpha virt. eigenvalues --    1.63758   1.64208   1.65172   1.65245   1.66165
 Alpha virt. eigenvalues --    1.66494   1.66716   1.67233   1.67526   1.68132
 Alpha virt. eigenvalues --    1.69034   1.69230   1.69494   1.70384   1.70544
 Alpha virt. eigenvalues --    1.71505   1.72070   1.72258   1.73595   1.74019
 Alpha virt. eigenvalues --    1.74390   1.74696   1.75069   1.75879   1.76440
 Alpha virt. eigenvalues --    1.77203   1.77479   1.78289   1.78541   1.79151
 Alpha virt. eigenvalues --    1.79476   1.79613   1.80870   1.81349   1.81746
 Alpha virt. eigenvalues --    1.82335   1.82804   1.83038   1.83079   1.83194
 Alpha virt. eigenvalues --    1.83994   1.84311   1.84463   1.84877   1.85206
 Alpha virt. eigenvalues --    1.85634   1.86291   1.86378   1.86848   1.87856
 Alpha virt. eigenvalues --    1.88623   1.89074   1.89512   1.90276   1.90855
 Alpha virt. eigenvalues --    1.91721   1.92391   1.92453   1.94222   1.95056
 Alpha virt. eigenvalues --    1.95951   1.96409   1.96857   1.97690   1.98391
 Alpha virt. eigenvalues --    1.99469   1.99928   2.00087   2.00566   2.01207
 Alpha virt. eigenvalues --    2.01365   2.01924   2.02450   2.02905   2.04222
 Alpha virt. eigenvalues --    2.04559   2.04893   2.05367   2.05673   2.06587
 Alpha virt. eigenvalues --    2.07550   2.08563   2.08860   2.09458   2.10347
 Alpha virt. eigenvalues --    2.11173   2.11626   2.12824   2.13383   2.14330
 Alpha virt. eigenvalues --    2.14912   2.15978   2.16528   2.17089   2.18921
 Alpha virt. eigenvalues --    2.19227   2.19689   2.20618   2.21073   2.21631
 Alpha virt. eigenvalues --    2.22413   2.23484   2.24558   2.25041   2.26546
 Alpha virt. eigenvalues --    2.27381   2.27700   2.29001   2.29392   2.29521
 Alpha virt. eigenvalues --    2.29857   2.30307   2.30806   2.31267   2.31639
 Alpha virt. eigenvalues --    2.32145   2.32761   2.33172   2.33325   2.33561
 Alpha virt. eigenvalues --    2.34690   2.35478   2.36763   2.37257   2.37743
 Alpha virt. eigenvalues --    2.38518   2.39060   2.40186   2.40456   2.40901
 Alpha virt. eigenvalues --    2.42128   2.42903   2.43863   2.44439   2.45220
 Alpha virt. eigenvalues --    2.45744   2.46147   2.46708   2.46996   2.47873
 Alpha virt. eigenvalues --    2.48502   2.49000   2.49818   2.50073   2.50309
 Alpha virt. eigenvalues --    2.51763   2.52515   2.53377   2.54009   2.54225
 Alpha virt. eigenvalues --    2.54629   2.55363   2.55575   2.56499   2.57228
 Alpha virt. eigenvalues --    2.58219   2.58627   2.59404   2.59486   2.60276
 Alpha virt. eigenvalues --    2.60471   2.61149   2.61669   2.62274   2.62906
 Alpha virt. eigenvalues --    2.63310   2.63884   2.64389   2.65773   2.66004
 Alpha virt. eigenvalues --    2.66233   2.66698   2.67156   2.68504   2.68726
 Alpha virt. eigenvalues --    2.70747   2.71092   2.71842   2.72539   2.72778
 Alpha virt. eigenvalues --    2.73526   2.73993   2.74712   2.75352   2.75781
 Alpha virt. eigenvalues --    2.75983   2.76223   2.76524   2.77470   2.77822
 Alpha virt. eigenvalues --    2.78058   2.78577   2.78696   2.79373   2.79662
 Alpha virt. eigenvalues --    2.80366   2.80910   2.81161   2.81606   2.82485
 Alpha virt. eigenvalues --    2.82661   2.82855   2.83803   2.83896   2.84292
 Alpha virt. eigenvalues --    2.84404   2.84868   2.85263   2.85628   2.86194
 Alpha virt. eigenvalues --    2.86797   2.87537   2.87931   2.88199   2.88674
 Alpha virt. eigenvalues --    2.89520   2.89646   2.91015   2.91614   2.92556
 Alpha virt. eigenvalues --    2.92983   2.93628   2.94432   2.95014   2.95905
 Alpha virt. eigenvalues --    2.96558   2.97476   2.97927   2.99324   3.00156
 Alpha virt. eigenvalues --    3.01488   3.02146   3.02863   3.03073   3.03794
 Alpha virt. eigenvalues --    3.04415   3.04875   3.05039   3.06244   3.07882
 Alpha virt. eigenvalues --    3.08668   3.09723   3.10289   3.11141   3.12096
 Alpha virt. eigenvalues --    3.12431   3.13328   3.14467   3.15350   3.16205
 Alpha virt. eigenvalues --    3.16522   3.17339   3.17382   3.18112   3.19791
 Alpha virt. eigenvalues --    3.20394   3.20802   3.21375   3.22015   3.22572
 Alpha virt. eigenvalues --    3.24016   3.24304   3.25435   3.26574   3.27110
 Alpha virt. eigenvalues --    3.27249   3.28862   3.29231   3.30231   3.31610
 Alpha virt. eigenvalues --    3.32397   3.33209   3.33630   3.33814   3.34411
 Alpha virt. eigenvalues --    3.35461   3.36646   3.37991   3.38272   3.38759
 Alpha virt. eigenvalues --    3.40448   3.42647   3.43091   3.43747   3.44348
 Alpha virt. eigenvalues --    3.46460   3.47210   3.49617   3.50491   3.52049
 Alpha virt. eigenvalues --    3.53500   3.55568   3.59556   3.63053   3.65074
 Alpha virt. eigenvalues --    3.65854   3.67028   3.67978   3.71695   3.73940
 Alpha virt. eigenvalues --    3.84399   3.85432   3.90493   3.90955   3.91625
 Alpha virt. eigenvalues --    4.01753   4.03863   4.08515   4.13826   4.16626
 Alpha virt. eigenvalues --    4.30648   4.31044   4.37169   4.37855   4.44453
 Alpha virt. eigenvalues --    4.47358   4.52420   4.77288  11.12723  21.95986
 Alpha virt. eigenvalues --   22.01862  22.06588  22.17160  22.18736  22.20724
 Alpha virt. eigenvalues --   22.21662  22.22380  22.23614  22.25222  22.28854
 Alpha virt. eigenvalues --   22.30011  22.30256  22.32695  22.35489  22.40216
 Alpha virt. eigenvalues --   31.96411  31.99915  32.10446  32.10848  32.15939
 Alpha virt. eigenvalues --   32.18193  43.55980  43.62569  43.65162  43.68766
 Alpha virt. eigenvalues --   43.73182  43.76286  43.82977
          Condensed to atoms (all electrons):
 Mulliken charges:
               1
     1  C   -0.428692
     2  H    0.151021
     3  C   -0.326889
     4  H    0.176671
     5  H    0.146462
     6  N   -0.419238
     7  C   -0.008789
     8  C   -0.095000
     9  H    0.197969
    10  N   -0.296514
    11  H    0.370265
    12  C   -0.096217
    13  H    0.174116
    14  C   -0.473668
    15  H    0.165016
    16  C   -0.266662
    17  H    0.211776
    18  H    0.041389
    19  N   -0.336070
    20  C   -0.140808
    21  C    0.047213
    22  H    0.202812
    23  N   -0.204766
    24  H    0.320464
    25  C   -0.027442
    26  H    0.210427
    27  C   -0.396808
    28  H    0.196533
    29  C   -0.473394
    30  H    0.174526
    31  H    0.208877
    32  N   -0.345627
    33  C    0.031304
    34  C    0.065644
    35  H    0.186543
    36  N   -0.213165
    37  H    0.319990
    38  C   -0.039609
    39  H    0.198233
    40  C    0.377118
    41  O   -0.408961
    42  O   -0.361346
    43  Zn   1.398534
    44  O   -0.639909
    45  H    0.350423
    46  H    0.330672
    47  H    0.354027
    48  O   -0.695100
    49  H    0.360451
    50  H    0.377937
    51  H    0.141401
    52  H    0.145943
    53  H    0.154147
    54  H    0.154603
    55  H    0.228931
    56  O   -0.714327
    57  H    0.368855
    58  H    0.333355
    59  O   -0.707514
    60  H    0.361679
    61  O   -0.836605
    62  H    0.330070
    63  H    0.387724
 Sum of Mulliken charges =   1.00000
 Mulliken charges with hydrogens summed into heavy atoms:
               1
     1  C    0.009673
     3  C   -0.003755
     6  N   -0.419238
     7  C   -0.008789
     8  C    0.102969
    10  N   -0.296514
    12  C    0.077898
    14  C    0.000099
    16  C   -0.013498
    19  N   -0.336070
    20  C   -0.140808
    21  C    0.250025
    23  N    0.115698
    25  C    0.182985
    27  C    0.028655
    29  C   -0.089991
    32  N   -0.345627
    33  C    0.031304
    34  C    0.252187
    36  N    0.106825
    38  C    0.158623
    40  C    0.377118
    41  O   -0.408961
    42  O   -0.000895
    43  Zn   1.398534
    44  O    0.041187
    48  O    0.036864
    56  O   -0.010706
    59  O    0.023019
    61  O   -0.118811
 APT charges:
               1
     1  C    0.060222
     2  H   -0.030866
     3  C    0.169639
     4  H   -0.049310
     5  H   -0.037474
     6  N   -0.838990
     7  C    0.136164
     8  C    0.256155
     9  H    0.130428
    10  N   -0.859224
    11  H    1.051427
    12  C   -0.034310
    13  H    0.103436
    14  C    0.061955
    15  H   -0.009617
[...]
 Alpha virt. eigenvalues --    0.84452   0.85041   0.85305   0.85934   0.86999
 Alpha virt. eigenvalues --    0.87242   0.87989   0.88606   0.88891   0.89829
 Alpha virt. eigenvalues --    0.89912   0.90836   0.91169   0.91601   0.91683
 Alpha virt. eigenvalues --    0.92374   0.93726   0.93899   0.94129   0.94987
 Alpha virt. eigenvalues --    0.95247   0.95660   0.96513   0.97514   0.97945
 Alpha virt. eigenvalues --    0.98420   0.99410   1.00103   1.01039   1.01889
 Alpha virt. eigenvalues --    1.02328   1.02672   1.02944   1.03456   1.04025
 Alpha virt. eigenvalues --    1.04450   1.05070   1.06377   1.06890   1.08039
 Alpha virt. eigenvalues --    1.08112   1.09003   1.09728   1.09872   1.10331
 Alpha virt. eigenvalues --    1.11695   1.11856   1.12981   1.13010   1.13901
 Alpha virt. eigenvalues --    1.14519   1.14990   1.15587   1.15887   1.16449
 Alpha virt. eigenvalues --    1.16718   1.17100   1.18745   1.19261   1.20014
 Alpha virt. eigenvalues --    1.20982   1.21033   1.22141   1.22898   1.23408
 Alpha virt. eigenvalues --    1.23411   1.24285   1.24951   1.25295   1.25776
 Alpha virt. eigenvalues --    1.26056   1.26677   1.27212   1.27899   1.28789
 Alpha virt. eigenvalues --    1.29966   1.30035   1.30799   1.31444   1.32224
 Alpha virt. eigenvalues --    1.33143   1.33200   1.33933   1.34171   1.34717
 Alpha virt. eigenvalues --    1.35091   1.36464   1.36985   1.37352   1.37553
 Alpha virt. eigenvalues --    1.37751   1.38482   1.39408   1.39921   1.40470
 Alpha virt. eigenvalues --    1.40532   1.41236   1.41676   1.42134   1.43791
 Alpha virt. eigenvalues --    1.43848   1.44650   1.45154   1.45794   1.46175
 Alpha virt. eigenvalues --    1.46743   1.47405   1.47951   1.48494   1.49420
 Alpha virt. eigenvalues --    1.49527   1.50328   1.50844   1.51598   1.52195
 Alpha virt. eigenvalues --    1.52369   1.53295   1.54096   1.54384   1.55344
 Alpha virt. eigenvalues --    1.56199   1.56756   1.57096   1.57233   1.57808
 Alpha virt. eigenvalues --    1.58509   1.58697   1.59323   1.59474   1.60370
 Alpha virt. eigenvalues --    1.60455   1.60551   1.60895   1.61611   1.62134
 Alpha virt. eigenvalues --    1.62267   1.62690   1.63285   1.63721   1.64401
 Alpha virt. eigenvalues --    1.64937   1.65368   1.65750   1.66530   1.66749
 Alpha virt. eigenvalues --    1.67051   1.67358   1.67968   1.68161   1.69010
 Alpha virt. eigenvalues --    1.69210   1.69571   1.69809   1.70243   1.70620
 Alpha virt. eigenvalues --    1.70889   1.71473   1.71712   1.72298   1.74057
 Alpha virt. eigenvalues --    1.74411   1.74798   1.75272   1.75551   1.76183
 Alpha virt. eigenvalues --    1.76641   1.77673   1.77841   1.78445   1.78791
 Alpha virt. eigenvalues --    1.79316   1.79978   1.80115   1.80391   1.81378
 Alpha virt. eigenvalues --    1.81885   1.82271   1.82774   1.83075   1.83499
 Alpha virt. eigenvalues --    1.84035   1.85069   1.85391   1.85607   1.86151
 Alpha virt. eigenvalues --    1.86444   1.87309   1.87657   1.87875   1.88249
 Alpha virt. eigenvalues --    1.89014   1.89301   1.90603   1.91529   1.92095
 Alpha virt. eigenvalues --    1.92508   1.93072   1.93591   1.94081   1.94716
 Alpha virt. eigenvalues --    1.95664   1.95670   1.95816   1.96622   1.97012
 Alpha virt. eigenvalues --    1.97773   1.98337   1.99162   1.99900   2.00054
 Alpha virt. eigenvalues --    2.01246   2.01827   2.02196   2.03366   2.03630
 Alpha virt. eigenvalues --    2.04684   2.05439   2.06011   2.06401   2.07112
 Alpha virt. eigenvalues --    2.07887   2.08141   2.08646   2.09710   2.09824
 Alpha virt. eigenvalues --    2.10473   2.10869   2.11280   2.11506   2.12762
 Alpha virt. eigenvalues --    2.13066   2.13752   2.14107   2.14683   2.15511
 Alpha virt. eigenvalues --    2.15715   2.15875   2.16301   2.16716   2.17812
 Alpha virt. eigenvalues --    2.18184   2.18554   2.18842   2.19679   2.20325
 Alpha virt. eigenvalues --    2.21034   2.22130   2.23030   2.23430   2.23791
 Alpha virt. eigenvalues --    2.24579   2.25243   2.25893   2.26020   2.26425
 Alpha virt. eigenvalues --    2.28192   2.28830   2.29008   2.29898   2.30289
 Alpha virt. eigenvalues --    2.30885   2.31541   2.32331   2.32975   2.33836
 Alpha virt. eigenvalues --    2.34071   2.34702   2.35564   2.35969   2.36324
 Alpha virt. eigenvalues --    2.36704   2.36916   2.37379   2.37923   2.38352
 Alpha virt. eigenvalues --    2.38627   2.39164   2.39549   2.40252   2.40943
 Alpha virt. eigenvalues --    2.41336   2.41657   2.42592   2.43036   2.44228
 Alpha virt. eigenvalues --    2.44705   2.44845   2.45449   2.45934   2.46371
 Alpha virt. eigenvalues --    2.47179   2.47761   2.48075   2.48459   2.49255
 Alpha virt. eigenvalues --    2.49893   2.50128   2.50881   2.51687   2.52049
 Alpha virt. eigenvalues --    2.52334   2.52997   2.53523   2.54483   2.55224
 Alpha virt. eigenvalues --    2.56331   2.57295   2.57651   2.57791   2.58833
 Alpha virt. eigenvalues --    2.59278   2.59871   2.60835   2.61374   2.61632
 Alpha virt. eigenvalues --    2.61866   2.62249   2.62681   2.63550   2.64177
 Alpha virt. eigenvalues --    2.64386   2.65214   2.65406   2.65510   2.66034
 Alpha virt. eigenvalues --    2.66609   2.67202   2.67347   2.67616   2.68352
 Alpha virt. eigenvalues --    2.68367   2.68928   2.69617   2.70557   2.71011
 Alpha virt. eigenvalues --    2.71342   2.71586   2.72346   2.73048   2.73782
 Alpha virt. eigenvalues --    2.74027   2.74909   2.75446   2.75876   2.76143
 Alpha virt. eigenvalues --    2.76780   2.77358   2.77718   2.78438   2.78919
 Alpha virt. eigenvalues --    2.79954   2.80669   2.81453   2.81890   2.82345
 Alpha virt. eigenvalues --    2.82730   2.83688   2.84324   2.84660   2.85441
 Alpha virt. eigenvalues --    2.85941   2.86400   2.87285   2.88161   2.88353
 Alpha virt. eigenvalues --    2.88867   2.89568   2.90008   2.90109   2.90496
 Alpha virt. eigenvalues --    2.90938   2.91057   2.91570   2.91905   2.92710
 Alpha virt. eigenvalues --    2.93053   2.93623   2.93947   2.94515   2.94866
 Alpha virt. eigenvalues --    2.95418   2.96425   2.97940   2.98834   2.98996
 Alpha virt. eigenvalues --    2.99175   3.00234   3.00675   3.01235   3.01605
 Alpha virt. eigenvalues --    3.01842   3.02182   3.02495   3.02604   3.03154
 Alpha virt. eigenvalues --    3.03592   3.03843   3.04905   3.05535   3.05709
 Alpha virt. eigenvalues --    3.06236   3.06530   3.07104   3.07448   3.08083
 Alpha virt. eigenvalues --    3.08816   3.09511   3.09775   3.10546   3.10869
 Alpha virt. eigenvalues --    3.11155   3.11741   3.12184   3.13636   3.14243
 Alpha virt. eigenvalues --    3.14437   3.14802   3.15509   3.15817   3.16394
 Alpha virt. eigenvalues --    3.17205   3.17442   3.17826   3.17898   3.18539
 Alpha virt. eigenvalues --    3.18800   3.19825   3.20631   3.21316   3.21834
 Alpha virt. eigenvalues --    3.22220   3.22659   3.22964   3.23537   3.23823
 Alpha virt. eigenvalues --    3.24465   3.25508   3.26387   3.27239   3.27854
 Alpha virt. eigenvalues --    3.28258   3.28733   3.29691   3.30042   3.31236
 Alpha virt. eigenvalues --    3.32226   3.32694   3.32879   3.33263   3.33626
 Alpha virt. eigenvalues --    3.34251   3.34531   3.34885   3.35578   3.35741
 Alpha virt. eigenvalues --    3.35858   3.36742   3.37916   3.38156   3.38592
 Alpha virt. eigenvalues --    3.38903   3.39602   3.40066   3.40378   3.41047
 Alpha virt. eigenvalues --    3.42069   3.42289   3.42745   3.43829   3.44110
 Alpha virt. eigenvalues --    3.44653   3.46012   3.46184   3.46586   3.46899
 Alpha virt. eigenvalues --    3.47372   3.48151   3.48629   3.49185   3.49297
 Alpha virt. eigenvalues --    3.49720   3.50154   3.51922   3.52968   3.53869
 Alpha virt. eigenvalues --    3.54346   3.54791   3.55357   3.56561   3.57043
 Alpha virt. eigenvalues --    3.57562   3.58226   3.58952   3.59341   3.59872
 Alpha virt. eigenvalues --    3.60385   3.61337   3.61851   3.62611   3.63443
 Alpha virt. eigenvalues --    3.63745   3.64868   3.65719   3.66198   3.66534
 Alpha virt. eigenvalues --    3.67902   3.68741   3.69753   3.70280   3.70837
 Alpha virt. eigenvalues --    3.72050   3.72515   3.73855   3.74041   3.76226
 Alpha virt. eigenvalues --    3.77562   3.78263   3.78827   3.79529   3.80058
 Alpha virt. eigenvalues --    3.80512   3.81999   3.82845   3.83886   3.84198
 Alpha virt. eigenvalues --    3.84932   3.85981   3.87135   3.88412   3.89704
 Alpha virt. eigenvalues --    3.89921   3.90419   3.91767   3.92305   3.93401
 Alpha virt. eigenvalues --    3.94314   3.95851   3.96551   3.96955   3.97614
 Alpha virt. eigenvalues --    3.98042   3.98733   3.99096   3.99603   4.00149
 Alpha virt. eigenvalues --    4.00968   4.01616   4.02732   4.03767   4.04272
 Alpha virt. eigenvalues --    4.06896   4.09559   4.10859   4.11886   4.12839
 Alpha virt. eigenvalues --    4.13786   4.14472   4.15253   4.15550   4.16677
 Alpha virt. eigenvalues --    4.18958   4.19819   4.22464   4.23666   4.27026
 Alpha virt. eigenvalues --    4.28254   4.29473   4.29847   4.30912   4.32171
 Alpha virt. eigenvalues --    4.33185   4.35184   4.36041   4.37216   4.38475
 Alpha virt. eigenvalues --    4.40413   4.41701   4.42218   4.42999   4.44519
 Alpha virt. eigenvalues --    4.45251   4.47368   4.48057   4.48796   4.50469
 Alpha virt. eigenvalues --    4.50891   4.52465   4.56917   4.58958   4.59664
 Alpha virt. eigenvalues --    4.60934   4.61588   4.62060   4.62592   4.64336
 Alpha virt. eigenvalues --    4.65357   4.66389   4.67647   4.68707   4.69262
 Alpha virt. eigenvalues --    4.69436   4.71163   4.72947   4.73402   4.75214
 Alpha virt. eigenvalues --    4.76413   4.76740   4.77478   4.79948   4.80938
 Alpha virt. eigenvalues --    4.82792   4.83758   4.83975   4.84641   4.84872
 Alpha virt. eigenvalues --    4.86662   4.87365   4.87987   4.89078   4.90069
 Alpha virt. eigenvalues --    4.90690   4.91932   4.93928   4.94297   4.96651
 Alpha virt. eigenvalues --    4.97191   4.98333   4.98678   5.01272   5.03328
 Alpha virt. eigenvalues --    5.03946   5.06605   5.09778   5.10244   5.10649
 Alpha virt. eigenvalues --    5.10986   5.11687   5.13342   5.14621   5.15427
 Alpha virt. eigenvalues --    5.16158   5.16561   5.17120   5.17587   5.18243
 Alpha virt. eigenvalues --    5.20508   5.20827   5.21362   5.21728   5.21952
 Alpha virt. eigenvalues --    5.22219   5.23069   5.24452   5.24927   5.26608
 Alpha virt. eigenvalues --    5.28293   5.29433   5.30933   5.31059   5.32151
 Alpha virt. eigenvalues --    5.32329   5.33038   5.34035   5.34544   5.34743
 Alpha virt. eigenvalues --    5.35483   5.36762   5.36904   5.38437   5.39563
 Alpha virt. eigenvalues --    5.39722   5.40152   5.40493   5.40544   5.41072
 Alpha virt. eigenvalues --    5.41524   5.41829   5.42347   5.43268   5.43536
 Alpha virt. eigenvalues --    5.45012   5.45837   5.46541   5.46899   5.47206
 Alpha virt. eigenvalues --    5.48612   5.49547   5.50149   5.50852   5.51095
 Alpha virt. eigenvalues --    5.51759   5.52678   5.56235   5.56785   5.58133
 Alpha virt. eigenvalues --    5.58528   5.60068   5.60929   5.62817   5.63275
 Alpha virt. eigenvalues --    5.67076   5.74585   5.78793   5.83887   5.85182
 Alpha virt. eigenvalues --    5.87593   5.88325   5.91376   5.91667   5.96124
 Alpha virt. eigenvalues --    5.98560   5.98980   5.99523   6.00775   6.01131
 Alpha virt. eigenvalues --    6.01666   6.05600   6.12101   6.16112   6.16864
 Alpha virt. eigenvalues --    6.20744   6.21768   6.24340   6.29555   6.33987
 Alpha virt. eigenvalues --    6.34503   6.36589   6.37479   6.38962   6.39627
 Alpha virt. eigenvalues --    6.42428   6.42885   6.44749   6.46152   6.46646
 Alpha virt. eigenvalues --    6.48825   6.51452   6.53812   6.56847   6.57979
 Alpha virt. eigenvalues --    6.62744   6.63257   6.72589   6.73256   6.75063
 Alpha virt. eigenvalues --    6.79087   6.80787   6.81437   6.91992   6.95243
 Alpha virt. eigenvalues --    6.95871   6.98988   7.01278   7.02794   7.04821
 Alpha virt. eigenvalues --    7.06063   7.07428   7.10481   7.13316   7.14229
 Alpha virt. eigenvalues --    7.29482   7.30054  22.45376  22.50851  22.59640
 Alpha virt. eigenvalues --   22.62709  22.64581  22.72140  22.75163  22.78613
 Alpha virt. eigenvalues --   22.85592  23.00053  23.01588  23.08523  23.27865
 Alpha virt. eigenvalues --   23.28133  23.29282  23.41915  32.38820  32.41064
 Alpha virt. eigenvalues --   32.55287  32.58090  32.68167  32.69835  43.69171
 Alpha virt. eigenvalues --   43.78799  43.79873  43.88083  43.94285  44.00801
 Alpha virt. eigenvalues --   44.14707  69.24603  69.33084  69.37405  88.98188
          Condensed to atoms (all electrons):
 Mulliken charges:
               1
     1  C   -0.458342
     2  H    0.159403
     3  C   -0.340247
     4  H    0.169220
     5  H    0.169246
     6  N   -0.371223
     7  C    0.070786
     8  C    0.034819
     9  H    0.213853
    10  N   -0.315366
    11  H    0.374955
    12  C   -0.146920
    13  H    0.195612
    14  C   -0.477452
    15  H    0.171220
    16  C   -0.250035
    17  H    0.190435
    18  H    0.063523
    19  N   -0.271538
    20  C   -0.031218
    21  C    0.070647
    22  H    0.221365
    23  N   -0.236435
    24  H    0.319332
    25  C   -0.079869
    26  H    0.224714
    27  C   -0.318133
    28  H    0.182343
    29  C   -0.384894
    30  H    0.179354
    31  H    0.193766
    32  N   -0.258444
    33  C    0.104916
    34  C    0.094084
    35  H    0.229559
    36  N   -0.243994
    37  H    0.321069
    38  C   -0.086389
    39  H    0.216291
    40  C    0.419253
    41  O   -0.462614
    42  O   -0.444760
    43  Zn   0.864610
    44  O   -0.761798
    45  H    0.398588
    46  H    0.395190
    47  H    0.407307
    48  O   -0.788130
    49  H    0.408055
    50  H    0.424735
    51  H    0.155465
    52  H    0.160404
    53  H    0.162019
    54  H    0.166396
    55  H    0.208503
    56  O   -0.929329
    57  H    0.425541
    58  H    0.369567
    59  O   -0.909370
    60  H    0.383104
    61  O   -0.752376
    62  H    0.386012
    63  H    0.413612
 Sum of Mulliken charges =   1.00000
 Mulliken charges with hydrogens summed into heavy atoms:
               1
     1  C    0.016930
     3  C   -0.001781
     6  N   -0.371223
     7  C    0.070786
     8  C    0.248672
    10  N    0.059589
    12  C    0.048693
    14  C    0.022184
    16  C    0.003923
    19  N   -0.271538
    20  C   -0.031218
    21  C    0.292012
    23  N    0.082896
    25  C    0.144845
    27  C    0.072713
    29  C   -0.011774
    32  N   -0.258444
    33  C    0.104916
    34  C    0.323643
    36  N    0.077075
    38  C    0.129903
    40  C    0.419253
    41  O   -0.462614
    42  O   -0.036705
    43  Zn   0.864610
    44  O    0.031980
    48  O    0.043912
    56  O   -0.559762
    59  O   -0.100724
    61  O    0.047248
 Electronic spatial extent (au):  <R**2>=          12570.8445
 Charge=              1.0000 electrons
 Dipole moment (field-independent basis, Debye):
    X=              5.7351    Y=             -2.5984    Z=              2.9223  Tot=              6.9414
 Quadrupole moment (field-independent basis, Debye-Ang):
   XX=           -158.3363   YY=           -129.4483   ZZ=           -173.8948
   XY=             22.9412   XZ=            -47.3863   YZ=             -2.2335
 Traceless Quadrupole moment (field-independent basis, Debye-Ang):
   XX=             -4.4431   YY=             24.4448   ZZ=            -20.0017
   XY=             22.9412   XZ=            -47.3863   YZ=             -2.2335
 Octapole moment (field-independent basis, Debye-Ang**2):
  XXX=             43.7250  YYY=             -7.5527  ZZZ=             26.0140  XYY=            124.6672
  XXY=             30.6423  XXZ=           -100.1980  XZZ=             10.0787  YZZ=           -107.1828
  YYZ=             52.2047  XYZ=             16.0259
 Hexadecapole moment (field-independent basis, Debye-Ang**3):
 XXXX=          -7722.9148 YYYY=          -4305.4446 ZZZZ=          -2588.2186 XXXY=            353.8120
 XXXZ=           -688.6569 YYYX=            369.9408 YYYZ=           -153.6247 ZZZX=           -159.7879
 ZZZY=            -41.2480 XXYY=          -1716.6018 XXZZ=          -2058.3585 YYZZ=           -991.0390
 XXYZ=             74.3019 YYXZ=           -216.5482 ZZXY=            103.2974
 N-N= 3.854759833001D+03 E-N=-1.171330998366D+04  KE= 1.631532687300D+03
 1\1\GINC-C74N07\SP\RM062X\GenECP\C16H33N6O7Zn1(1+)\DONGH_N\24-Aug-2024
 \0\\# geom(allcheck,modredundant) genecp scrf(SMD) m062x\\Title Card R
 equired\\1,1\C,0,-1.9419469975,4.2252803342,2.3583459433\H,0,-1.640043
 5181,4.4613492484,3.3789432581\C,0,-1.6212247889,2.7681244843,2.021441
 4123\H,0,-2.1161657152,2.1089936353,2.7401023145\H,0,-0.5482972863,2.5
 889802737,2.1242968837\N,0,-1.1053664695,1.8057715281,-0.2418279828\C,
 0,-2.0121224794,2.3783682182,0.6296151522\C,0,-1.7827711509,1.57355505
 94,-1.3626873673\H,0,-1.3747271323,1.1150789666,-2.2476593018\N,0,-3.0
 597334812,1.9318462639,-1.2706988928\H,0,-3.7302173367,1.3051152665,-1
 .9697924834\C,0,-3.2235804928,2.452358781,-0.0080669567\H,0,-4.1750475
 016,2.814080323,0.3434466451\C,0,-4.3061350832,-1.7520927751,0.5538347
 185\H,0,-4.7172240281,-1.7915290582,1.563825511\C,0,-2.990415025,-0.97
 21168116,0.519568223\H,0,-3.1658874763,0.0563038832,0.8425975217\H,0,-
 2.6292113988,-0.9106193385,-0.5093789121\N,0,-0.6040657509,-1.10572650
 14,1.3759750157\C,0,-1.9170434576,-1.5630574006,1.375087019\C,0,0.0606
 714708,-1.8453103652,2.2475795842\H,0,1.1117861404,-1.762097618,2.4673
 282599\N,0,-0.7510248829,-2.7496519901,2.8037682014\H,0,-0.4800976243,
 -3.433242198,3.4953350568\C,0,-2.0070856517,-2.5927485732,2.2657922066
 \H,0,-2.8379785096,-3.2070474805,2.5636537581\C,0,4.6019710806,-1.0218
 305591,-0.5778586619\H,0,5.5445292726,-0.4910986229,-0.4658065331\C,0,
 3.65168849,-0.2457156897,-1.5098932249\H,0,2.7413563021,-0.8192589418,
 -1.6814223824\H,0,4.1411600069,-0.1394892392,-2.4774610172\N,0,2.11068
 05202,1.3825644877,-0.3162588162\C,0,3.2886361378,1.1081589287,-0.9903
 246411\C,0,2.1356986998,2.6678286055,-0.0093111192\H,0,1.355393241,3.2
 101589062,0.4982233667\N,0,3.270137902,3.2268143462,-0.4452634528\H,0,
 3.5208996385,4.1994855507,-0.3432244748\C,0,4.0142397123,2.2600270323,
 -1.0711480443\H,0,4.9695156581,2.4683436149,-1.5192639348\C,0,3.999251
 9068,-1.1825407234,0.7975409099\O,0,4.4630420688,-0.6887421732,1.79445
 67151\O,0,2.8684701544,-1.8926789268,0.886650896\Zn,0,0.3448631053,0.3
 167780888,0.1416923483\O,0,-1.188204423,-3.4241092206,-1.1048160502\H,
 0,-1.6764786361,-2.7572975527,-1.6351368898\H,0,-1.5803489258,-3.40209
 35782,-0.223033898\H,0,1.9142716929,-3.5769715893,-1.8500091217\O,0,1.
 4961806077,-2.9576844912,-1.2410403238\H,0,2.5314241449,-2.2715278544,
 0.0428705518\H,0,0.5743204584,-3.2772522547,-1.0955432372\H,0,-1.42068
 85159,4.9005902203,1.6784566566\H,0,-3.012220142,4.4163222992,2.268939
 4299\H,0,-5.0374955377,-1.266300412,-0.0910647988\H,0,-4.1710173633,-2
 .7764521441,0.2000793119\H,0,4.7985310956,-2.0087943537,-1.0025768725\
 O,0,-4.0379063065,0.239033033,-2.791796384\H,0,-3.1050076886,-0.631726
 731,-2.7377809752\H,0,-4.900195701,-0.1563712957,-2.6374524159\O,0,-2.
 2008980783,-1.3543308388,-2.7056760515\H,0,-2.0763539628,-1.6664476757
 ,-3.6088725837\O,0,0.1241003446,-0.6083948407,-1.7432445099\H,0,0.6803
 33767,-1.4041094954,-1.8186592619\H,0,-0.7739465758,-0.8578504114,-2.1
 259142784\\Version=ES64L-G16RevA.03\State=1-A\HF=-1711.960802\RMSD=7.5
 90e-09\Dipole=2.2564488,-1.0221317,1.1497382\Quadrupole=-3.3056599,18.
 1764026,-14.8707427,17.0547479,-35.2304623,-1.6628942\PG=C01 [X(C16H33
 N6O7Zn1)]\\@


 EDUCATION DOESN'T COST 
           ... IT PAYS!

 -- POSTMARK, UNIV. OF MISSISSIPPI, DEC 78
 Job cpu time:       0 days  5 hours 36 minutes 40.3 seconds.
 Elapsed time:       0 days  0 hours  4 minutes 17.8 seconds.
 File lengths (MBytes):  RWF=    992 Int=      0 D2E=      0 Chk=    128 Scr=      1
 Normal termination of Gaussian 16 at Sat Aug 24 08:17:59 2024.
